<event>
 4    1  0.2486873E+000  0.5330003E+02  0.7957747E-01  0.1428314E+00
         13   -1    0    0    0    0  0.00000000000E+00  0.00000000000E+00  0.99999944178E+02  0.99999999999E+02  0.10566000000E+00 0. -1.
         22   -1    0    0    0    0 -0.00000000000E+00 -0.00000000000E+00 -0.16592935045E+02  0.16592935045E+02  0.00000000000E+00 0. -1.
         13    1    1    2    0    0  0.18176433716E+02  0.32420471299E+01  0.10503867210E+01  0.18493460696E+02  0.10566000000E+00 0.  1.
        996    1    1    2    0    0 -0.18176433716E+02 -0.32420471299E+01  0.82356622412E+02  0.98099474348E+02  0.50000000000E+02 0.  0.
<mgrwt>
<rscale>  0 0.53300034E+02</rscale>
<asrwt>0</asrwt>
<pdfrwt beam="1">  1       13 0.10000000E+01 0.53300034E+02</pdfrwt>
<pdfrwt beam="2">  1       22 0.16592958E+00 0.53300034E+02</pdfrwt>
<totfact> 0.63582336E-01</totfact>
</mgrwt>
</event>
<event>
 4    1  0.2486873E+000  0.5125998E+02  0.7957747E-01  0.1438662E+00
         13   -1    0    0    0    0  0.00000000000E+00  0.00000000000E+00  0.99999944178E+02  0.99999999998E+02  0.10566000000E+00 0.  1.
         22   -1    0    0    0    0 -0.00000000000E+00 -0.00000000000E+00 -0.17491946536E+02  0.17491946536E+02  0.00000000000E+00 0. -1.
         13    1    1    2    0    0  0.85578163508E+01  0.73721781818E+01 -0.77463497106E+01  0.13696799981E+02  0.10566000000E+00 0. -1.
        996    1    1    2    0    0 -0.85578163508E+01 -0.73721781818E+01  0.90254347353E+02  0.10379514655E+03  0.50000000000E+02 0.  0.
<mgrwt>
<rscale>  0 0.51259977E+02</rscale>
<asrwt>0</asrwt>
<pdfrwt beam="1">  1       13 0.10000000E+01 0.51259977E+02</pdfrwt>
<pdfrwt beam="2">  1       22 0.17491970E+00 0.51259977E+02</pdfrwt>
<totfact> 0.57734988E-01</totfact>
</mgrwt>
</event>
<event>
 4    1  0.2486873E+000  0.5400613E+02  0.7957747E-01  0.1424858E+00
         13   -1    0    0    0    0  0.00000000000E+00  0.00000000000E+00  0.99999944177E+02  0.99999999998E+02  0.10566000000E+00 0.  1.
         22   -1    0    0    0    0 -0.00000000000E+00 -0.00000000000E+00 -0.24451042837E+02  0.24451042837E+02  0.00000000000E+00 0. -1.
         13    1    1    2    0    0 -0.12120939244E+02 -0.16423918260E+02 -0.10425969369E+02  0.22921044053E+02  0.10566000000E+00 0. -1.
        996    1    1    2    0    0  0.12120939244E+02  0.16423918260E+02  0.85974870709E+02  0.10152999878E+03  0.50000000000E+02 0.  0.
<mgrwt>
<rscale>  0 0.54006132E+02</rscale>
<asrwt>0</asrwt>
<pdfrwt beam="1">  1       13 0.10000000E+01 0.54006132E+02</pdfrwt>
<pdfrwt beam="2">  1       22 0.24451064E+00 0.54006132E+02</pdfrwt>
<totfact> 0.30891029E-01</totfact>
</mgrwt>
</event>
<event>
 4    1  0.2486873E+000  0.5642889E+02  0.7957747E-01  0.1413460E+00
         13   -1    0    0    0    0  0.00000000000E+00  0.00000000000E+00  0.99999944182E+02  0.10000000000E+03  0.10566000000E+00 0. -1.
         22   -1    0    0    0    0 -0.00000000000E+00 -0.00000000000E+00 -0.18673781216E+02  0.18673781216E+02  0.00000000000E+00 0. -1.
         13    1    1    2    0    0  0.25414687861E+02 -0.61897440345E+01  0.10671457398E+02  0.28250848789E+02  0.10566000000E+00 0.  1.
        996    1    1    2    0    0 -0.25414687861E+02  0.61897440345E+01  0.70654705567E+02  0.90422932429E+02  0.50000000000E+02 0.  0.
<mgrwt>
<rscale>  0 0.56428887E+02</rscale>
<asrwt>0</asrwt>
<pdfrwt beam="1">  1       13 0.10000000E+01 0.56428887E+02</pdfrwt>
<pdfrwt beam="2">  1       22 0.18673804E+00 0.56428887E+02</pdfrwt>
<totfact> 0.51818671E-01</totfact>
</mgrwt>
</event>
<event>
 4    1  0.2486873E+000  0.5358488E+02  0.7957747E-01  0.1426912E+00
         13   -1    0    0    0    0  0.00000000000E+00  0.00000000000E+00  0.99999944181E+02  0.10000000000E+03  0.10566000000E+00 0.  1.
         22   -1    0    0    0    0 -0.00000000000E+00 -0.00000000000E+00 -0.16704367178E+02  0.16704367178E+02  0.00000000000E+00 0.  1.
         13    1    1    2    0    0  0.73464755121E+01  0.17814831890E+02  0.20499336298E+01  0.19379172574E+02  0.10566000000E+00 0. -1.
        996    1    1    2    0    0 -0.73464755121E+01 -0.17814831890E+02  0.81245643373E+02  0.97325194605E+02  0.50000000000E+02 0.  0.
<mgrwt>
<rscale>  0 0.53584876E+02</rscale>
<asrwt>0</asrwt>
<pdfrwt beam="1">  1       13 0.10000000E+01 0.53584876E+02</pdfrwt>
<pdfrwt beam="2">  1       22 0.16704390E+00 0.53584876E+02</pdfrwt>
<totfact> 0.62880712E-01</totfact>
</mgrwt>
</event>
<event>
 4    1  0.2486873E+000  0.5389611E+02  0.7957747E-01  0.1425393E+00
         13   -1    0    0    0    0  0.00000000000E+00  0.00000000000E+00  0.99999944185E+02  0.10000000001E+03  0.10566000000E+00 0.  1.
         22   -1    0    0    0    0 -0.00000000000E+00 -0.00000000000E+00 -0.25050527312E+02  0.25050527312E+02  0.00000000000E+00 0. -1.
         13    1    1    2    0    0  0.10187910876E+02  0.17349280712E+02 -0.11501660963E+02  0.23175211718E+02  0.10566000000E+00 0. -1.
        996    1    1    2    0    0 -0.10187910876E+02 -0.17349280712E+02  0.86451077837E+02  0.10187531560E+03  0.50000000000E+02 0.  0.
<mgrwt>
<rscale>  0 0.53896114E+02</rscale>
<asrwt>0</asrwt>
<pdfrwt beam="1">  1       13 0.10000000E+01 0.53896114E+02</pdfrwt>
<pdfrwt beam="2">  1       22 0.25050548E+00 0.53896114E+02</pdfrwt>
<totfact> 0.29448213E-01</totfact>
</mgrwt>
</event>
<event>
 4    1  0.2486873E+000  0.5166782E+02  0.7957747E-01  0.1436548E+00
         13   -1    0    0    0    0  0.00000000000E+00  0.00000000000E+00  0.99999944182E+02  0.10000000000E+03  0.10566000000E+00 0.  1.
         22   -1    0    0    0    0 -0.00000000000E+00 -0.00000000000E+00 -0.11029515453E+02  0.11029515453E+02  0.00000000000E+00 0.  1.
         13    1    1    2    0    0  0.21406056227E+01 -0.12844516113E+02  0.90349680770E+01  0.15849466830E+02  0.10566000000E+00 0. -1.
        996    1    1    2    0    0 -0.21406056227E+01  0.12844516113E+02  0.79935460652E+02  0.95180048625E+02  0.50000000000E+02 0.  0.
<mgrwt>
<rscale>  0 0.51667822E+02</rscale>
<asrwt>0</asrwt>
<pdfrwt beam="1">  1       13 0.10000000E+01 0.51667822E+02</pdfrwt>
<pdfrwt beam="2">  1       22 0.11029540E+00 0.51667822E+02</pdfrwt>
<totfact> 0.12199060E+00</totfact>
</mgrwt>
</event>
<event>
 4    1  0.2486873E+000  0.5992175E+02  0.7957747E-01  0.1398160E+00
         13   -1    0    0    0    0  0.00000000000E+00  0.00000000000E+00  0.99999944179E+02  0.99999999999E+02  0.10566000000E+00 0.  1.
         22   -1    0    0    0    0 -0.00000000000E+00 -0.00000000000E+00 -0.66109960879E+02  0.66109960879E+02  0.00000000000E+00 0. -1.
         13    1    1    2    0    0  0.27156968598E+02  0.18791367969E+02 -0.51869331561E+02  0.61490285201E+02  0.10566000000E+00 0. -1.
        996    1    1    2    0    0 -0.27156968598E+02 -0.18791367969E+02  0.85759314860E+02  0.10461967568E+03  0.50000000000E+02 0.  0.
<mgrwt>
<rscale>  0 0.59921753E+02</rscale>
<asrwt>0</asrwt>
<pdfrwt beam="1">  1       13 0.10000000E+01 0.59921753E+02</pdfrwt>
<pdfrwt beam="2">  1       22 0.66109970E+00 0.59921753E+02</pdfrwt>
<totfact> 0.87247960E-02</totfact>
</mgrwt>
</event>
<event>
 4    1  0.2486873E+000  0.6802461E+02  0.7957747E-01  0.1366942E+00
         13   -1    0    0    0    0  0.00000000000E+00  0.00000000000E+00  0.99999944182E+02  0.10000000000E+03  0.10566000000E+00 0.  1.
         22   -1    0    0    0    0 -0.00000000000E+00 -0.00000000000E+00 -0.58338956354E+02  0.58338956354E+02  0.00000000000E+00 0. -1.
         13    1    1    2    0    0 -0.40309799769E+02 -0.22415794423E+02 -0.33470225163E+02  0.56987848999E+02  0.10566000000E+00 0. -1.
        996    1    1    2    0    0  0.40309799769E+02  0.22415794423E+02  0.75131212991E+02  0.10135110736E+03  0.50000000000E+02 0.  0.
<mgrwt>
<rscale>  0 0.68024612E+02</rscale>
<asrwt>0</asrwt>
<pdfrwt beam="1">  1       13 0.10000000E+01 0.68024612E+02</pdfrwt>
<pdfrwt beam="2">  1       22 0.58338968E+00 0.68024612E+02</pdfrwt>
<totfact> 0.59037298E-02</totfact>
</mgrwt>
</event>
<event>
 4    1  0.2486873E+000  0.5113861E+02  0.7957747E-01  0.1439295E+00
         13   -1    0    0    0    0  0.00000000000E+00  0.00000000000E+00  0.99999944185E+02  0.10000000001E+03  0.10566000000E+00 0.  1.
         22   -1    0    0    0    0 -0.00000000000E+00 -0.00000000000E+00 -0.19926086337E+02  0.19926086337E+02  0.00000000000E+00 0. -1.
         13    1    1    2    0    0  0.10726564637E+02 -0.31366910204E+00 -0.11068757503E+02  0.15417072806E+02  0.10566000000E+00 0. -1.
        996    1    1    2    0    0 -0.10726564637E+02  0.31366910204E+00  0.91142615351E+02  0.10450901354E+03  0.50000000000E+02 0.  0.
<mgrwt>
<rscale>  0 0.51138611E+02</rscale>
<asrwt>0</asrwt>
<pdfrwt beam="1">  1       13 0.10000000E+01 0.51138611E+02</pdfrwt>
<pdfrwt beam="2">  1       22 0.19926109E+00 0.51138611E+02</pdfrwt>
<totfact> 0.45550429E-01</totfact>
</mgrwt>
</event>
<event>
 4    1  0.2486873E+000  0.5173322E+02  0.7957747E-01  0.1436211E+00
         13   -1    0    0    0    0  0.00000000000E+00  0.00000000000E+00  0.99999944172E+02  0.99999999992E+02  0.10566000000E+00 0. -1.
         22   -1    0    0    0    0 -0.00000000000E+00 -0.00000000000E+00 -0.10620065356E+02  0.10620065356E+02  0.00000000000E+00 0. -1.
         13    1    1    2    0    0  0.88189237078E+01  0.99273619090E+01  0.21560955530E+02  0.25322162176E+02  0.10566000000E+00 0.  1.
        996    1    1    2    0    0 -0.88189237078E+01 -0.99273619090E+01  0.67818923286E+02  0.85297903172E+02  0.50000000000E+02 0.  0.
<mgrwt>
<rscale>  0 0.51733219E+02</rscale>
<asrwt>0</asrwt>
<pdfrwt beam="1">  1       13 0.10000000E+01 0.51733219E+02</pdfrwt>
<pdfrwt beam="2">  1       22 0.10620090E+00 0.51733219E+02</pdfrwt>
<totfact> 0.12903832E+00</totfact>
</mgrwt>
</event>
<event>
 4    1  0.2486873E+000  0.5136333E+02  0.7957747E-01  0.1438124E+00
         13   -1    0    0    0    0  0.00000000000E+00  0.00000000000E+00  0.99999944180E+02  0.10000000000E+03  0.10566000000E+00 0. -1.
         22   -1    0    0    0    0 -0.00000000000E+00 -0.00000000000E+00 -0.10008921120E+02  0.10008921120E+02  0.00000000000E+00 0. -1.
         13    1    1    2    0    0 -0.11717324288E+02 -0.94648136726E+00  0.19894800346E+02  0.23108564652E+02  0.10566000000E+00 0.  1.
        996    1    1    2    0    0  0.11717324288E+02  0.94648136726E+00  0.70096222714E+02  0.86900356468E+02  0.50000000000E+02 0.  0.
<mgrwt>
<rscale>  0 0.51363329E+02</rscale>
<asrwt>0</asrwt>
<pdfrwt beam="1">  1       13 0.10000000E+01 0.51363329E+02</pdfrwt>
<pdfrwt beam="2">  1       22 0.10008946E+00 0.51363329E+02</pdfrwt>
<totfact> 0.14058026E+00</totfact>
</mgrwt>
</event>
<event>
 4    1  0.2486873E+000  0.5171639E+02  0.7957747E-01  0.1436298E+00
         13   -1    0    0    0    0  0.00000000000E+00  0.00000000000E+00  0.99999944180E+02  0.10000000000E+03  0.10566000000E+00 0. -1.
         22   -1    0    0    0    0 -0.00000000000E+00 -0.00000000000E+00 -0.11372688775E+02  0.11372688775E+02  0.00000000000E+00 0. -1.
         13    1    1    2    0    0  0.94771765007E+01 -0.92069826088E+01  0.75869000677E+01  0.15236719458E+02  0.10566000000E+00 0.  1.
        996    1    1    2    0    0 -0.94771765007E+01  0.92069826088E+01  0.81040355338E+02  0.96135969317E+02  0.50000000000E+02 0.  0.
<mgrwt>
<rscale>  0 0.51716394E+02</rscale>
<asrwt>0</asrwt>
<pdfrwt beam="1">  1       13 0.10000000E+01 0.51716394E+02</pdfrwt>
<pdfrwt beam="2">  1       22 0.11372714E+00 0.51716394E+02</pdfrwt>
<totfact> 0.11653875E+00</totfact>
</mgrwt>
</event>
<event>
 4    1  0.2486873E+000  0.5279492E+02  0.7957747E-01  0.1430824E+00
         13   -1    0    0    0    0  0.00000000000E+00  0.00000000000E+00  0.99999944183E+02  0.10000000000E+03  0.10566000000E+00 0.  1.
         22   -1    0    0    0    0 -0.00000000000E+00 -0.00000000000E+00 -0.15204373411E+02  0.15204373411E+02  0.00000000000E+00 0. -1.
         13    1    1    2    0    0  0.16317650998E+02  0.45866743420E+01  0.20820135757E+01  0.17077741659E+02  0.10566000000E+00 0. -1.
        996    1    1    2    0    0 -0.16317650998E+02 -0.45866743420E+01  0.82713557195E+02  0.98126631755E+02  0.50000000000E+02 0.  0.
<mgrwt>
<rscale>  0 0.52794918E+02</rscale>
<asrwt>0</asrwt>
<pdfrwt beam="1">  1       13 0.10000000E+01 0.52794918E+02</pdfrwt>
<pdfrwt beam="2">  1       22 0.15204397E+00 0.52794918E+02</pdfrwt>
<totfact> 0.73728400E-01</totfact>
</mgrwt>
</event>
<event>
 4    1  0.2486873E+000  0.5420123E+02  0.7957747E-01  0.1423915E+00
         13   -1    0    0    0    0  0.00000000000E+00  0.00000000000E+00  0.99999944182E+02  0.10000000000E+03  0.10566000000E+00 0. -1.
         22   -1    0    0    0    0 -0.00000000000E+00 -0.00000000000E+00 -0.14657327756E+02  0.14657327756E+02  0.00000000000E+00 0. -1.
         13    1    1    2    0    0 -0.18123236606E+02 -0.10455706049E+02  0.34460390884E+02  0.40315049275E+02  0.10566000000E+00 0.  1.
        996    1    1    2    0    0  0.18123236606E+02  0.10455706049E+02  0.50882225542E+02  0.74342278484E+02  0.50000000000E+02 0.  0.
<mgrwt>
<rscale>  0 0.54201231E+02</rscale>
<asrwt>0</asrwt>
<pdfrwt beam="1">  1       13 0.10000000E+01 0.54201231E+02</pdfrwt>
<pdfrwt beam="2">  1       22 0.14657352E+00 0.54201231E+02</pdfrwt>
<totfact> 0.78580483E-01</totfact>
</mgrwt>
</event>
<event>
 4    1  0.2486873E+000  0.5381820E+02  0.7957747E-01  0.1425772E+00
         13   -1    0    0    0    0  0.00000000000E+00  0.00000000000E+00  0.99999944178E+02  0.99999999998E+02  0.10566000000E+00 0.  1.
         22   -1    0    0    0    0 -0.00000000000E+00 -0.00000000000E+00 -0.15632145106E+02  0.15632145106E+02  0.00000000000E+00 0. -1.
         13    1    1    2    0    0  0.15904224710E+02 -0.11977246128E+02  0.64381933373E+01  0.20925111372E+02  0.10566000000E+00 0. -1.
        996    1    1    2    0    0 -0.15904224710E+02  0.11977246128E+02  0.77929605734E+02  0.94707033732E+02  0.50000000000E+02 0.  0.
<mgrwt>
<rscale>  0 0.53818201E+02</rscale>
<asrwt>0</asrwt>
<pdfrwt beam="1">  1       13 0.10000000E+01 0.53818201E+02</pdfrwt>
<pdfrwt beam="2">  1       22 0.15632169E+00 0.53818201E+02</pdfrwt>
<totfact> 0.70503017E-01</totfact>
</mgrwt>
</event>
<event>
 4    1  0.2486873E+000  0.5431083E+02  0.7957747E-01  0.1423386E+00
         13   -1    0    0    0    0  0.00000000000E+00  0.00000000000E+00  0.99999944177E+02  0.99999999997E+02  0.10566000000E+00 0.  1.
         22   -1    0    0    0    0 -0.00000000000E+00 -0.00000000000E+00 -0.21876098268E+02  0.21876098268E+02  0.00000000000E+00 0. -1.
         13    1    1    2    0    0 -0.15459456170E+02 -0.14514514512E+02 -0.57339681176E+01  0.21967145263E+02  0.10566000000E+00 0. -1.
        996    1    1    2    0    0  0.15459456170E+02  0.14514514512E+02  0.83857814027E+02  0.99908953002E+02  0.50000000000E+02 0.  0.
<mgrwt>
<rscale>  0 0.54310827E+02</rscale>
<asrwt>0</asrwt>
<pdfrwt beam="1">  1       13 0.10000000E+01 0.54310827E+02</pdfrwt>
<pdfrwt beam="2">  1       22 0.21876120E+00 0.54310827E+02</pdfrwt>
<totfact> 0.38381631E-01</totfact>
</mgrwt>
</event>
<event>
 4    1  0.2486873E+000  0.5429813E+02  0.7957747E-01  0.1423448E+00
         13   -1    0    0    0    0  0.00000000000E+00  0.00000000000E+00  0.99999944175E+02  0.99999999995E+02  0.10566000000E+00 0. -1.
         22   -1    0    0    0    0 -0.00000000000E+00 -0.00000000000E+00 -0.14240245985E+02  0.14240245985E+02  0.00000000000E+00 0. -1.
         13    1    1    2    0    0 -0.16739894960E+02  0.12963912290E+02  0.24370208911E+02  0.32283205409E+02  0.10566000000E+00 0.  1.
        996    1    1    2    0    0  0.16739894960E+02 -0.12963912290E+02  0.61389489280E+02  0.81957040571E+02  0.50000000000E+02 0.  0.
<mgrwt>
<rscale>  0 0.54298132E+02</rscale>
<asrwt>0</asrwt>
<pdfrwt beam="1">  1       13 0.10000000E+01 0.54298132E+02</pdfrwt>
<pdfrwt beam="2">  1       22 0.14240270E+00 0.54298132E+02</pdfrwt>
<totfact> 0.82411862E-01</totfact>
</mgrwt>
</event>
<event>
 4    1  0.2486873E+000  0.5148241E+02  0.7957747E-01  0.1437506E+00
         13   -1    0    0    0    0  0.00000000000E+00  0.00000000000E+00  0.99999944174E+02  0.99999999994E+02  0.10566000000E+00 0. -1.
         22   -1    0    0    0    0 -0.00000000000E+00 -0.00000000000E+00 -0.41286585194E+02  0.41286585194E+02  0.00000000000E+00 0.  1.
         13    1    1    2    0    0  0.12192165761E+02 -0.13376746000E+01 -0.33500217811E+02  0.35675117894E+02  0.10566000000E+00 0.  1.
        996    1    1    2    0    0 -0.12192165761E+02  0.13376746000E+01  0.92213576791E+02  0.10561146729E+03  0.50000000000E+02 0.  0.
<mgrwt>
<rscale>  0 0.51482407E+02</rscale>
<asrwt>0</asrwt>
<pdfrwt beam="1">  1       13 0.10000000E+01 0.51482407E+02</pdfrwt>
<pdfrwt beam="2">  1       22 0.41286602E+00 0.51482407E+02</pdfrwt>
<totfact> 0.11626207E-01</totfact>
</mgrwt>
</event>
<event>
 4    1  0.2486873E+000  0.5203377E+02  0.7957747E-01  0.1434671E+00
         13   -1    0    0    0    0  0.00000000000E+00  0.00000000000E+00  0.99999944178E+02  0.99999999998E+02  0.10566000000E+00 0.  1.
         22   -1    0    0    0    0 -0.00000000000E+00 -0.00000000000E+00 -0.11152050467E+02  0.11152050467E+02  0.00000000000E+00 0.  1.
         13    1    1    2    0    0 -0.12140851058E+02  0.77532242898E+01  0.24221879346E+02  0.28181968604E+02  0.10566000000E+00 0. -1.
        996    1    1    2    0    0  0.12140851058E+02 -0.77532242898E+01  0.64626014366E+02  0.82970081862E+02  0.50000000000E+02 0.  0.
<mgrwt>
<rscale>  0 0.52033765E+02</rscale>
<asrwt>0</asrwt>
<pdfrwt beam="1">  1       13 0.10000000E+01 0.52033765E+02</pdfrwt>
<pdfrwt beam="2">  1       22 0.11152075E+00 0.52033765E+02</pdfrwt>
<totfact> 0.12009833E+00</totfact>
</mgrwt>
</event>
<event>
 4    1  0.2486873E+000  0.5103982E+02  0.7957747E-01  0.1439812E+00
         13   -1    0    0    0    0  0.00000000000E+00  0.00000000000E+00  0.99999944173E+02  0.99999999993E+02  0.10566000000E+00 0. -1.
         22   -1    0    0    0    0 -0.00000000000E+00 -0.00000000000E+00 -0.10425910359E+02  0.10425910359E+02  0.00000000000E+00 0. -1.
         13    1    1    2    0    0  0.98624671785E+01 -0.27920289290E+01  0.44543054629E+01  0.11176568596E+02  0.10566000000E+00 0.  1.
        996    1    1    2    0    0 -0.98624671785E+01  0.27920289290E+01  0.85119728351E+02  0.99249341756E+02  0.50000000000E+02 0.  0.
<mgrwt>
<rscale>  0 0.51039824E+02</rscale>
<asrwt>0</asrwt>
<pdfrwt beam="1">  1       13 0.10000000E+01 0.51039824E+02</pdfrwt>
<pdfrwt beam="2">  1       22 0.10425935E+00 0.51039824E+02</pdfrwt>
<totfact> 0.13236379E+00</totfact>
</mgrwt>
</event>
<event>
 4    1  0.2486873E+000  0.5455983E+02  0.7957747E-01  0.1422192E+00
         13   -1    0    0    0    0  0.00000000000E+00  0.00000000000E+00  0.99999944167E+02  0.99999999988E+02  0.10566000000E+00 0.  1.
         22   -1    0    0    0    0 -0.00000000000E+00 -0.00000000000E+00 -0.23906948862E+02  0.23906948862E+02  0.00000000000E+00 0.  1.
         13    1    1    2    0    0 -0.19368363817E+02 -0.10081721747E+02 -0.83449002573E+01  0.23375695811E+02  0.10566000000E+00 0. -1.
        996    1    1    2    0    0  0.19368363817E+02  0.10081721747E+02  0.84437895563E+02  0.10053125304E+03  0.50000000000E+02 0.  0.
<mgrwt>
<rscale>  0 0.54559826E+02</rscale>
<asrwt>0</asrwt>
<pdfrwt beam="1">  1       13 0.10000000E+01 0.54559826E+02</pdfrwt>
<pdfrwt beam="2">  1       22 0.23906970E+00 0.54559826E+02</pdfrwt>
<totfact> 0.32313838E-01</totfact>
</mgrwt>
</event>
<event>
 4    1  0.2486873E+000  0.5246848E+02  0.7957747E-01  0.1432464E+00
         13   -1    0    0    0    0  0.00000000000E+00  0.00000000000E+00  0.99999944182E+02  0.10000000000E+03  0.10566000000E+00 0.  1.
         22   -1    0    0    0    0 -0.00000000000E+00 -0.00000000000E+00 -0.23058642742E+02  0.23058642742E+02  0.00000000000E+00 0. -1.
         13    1    1    2    0    0  0.58620232766E+01  0.14784385168E+02 -0.11911610339E+02  0.19870555770E+02  0.10566000000E+00 0. -1.
        996    1    1    2    0    0 -0.58620232766E+01 -0.14784385168E+02  0.88852911780E+02  0.10318808697E+03  0.50000000000E+02 0.  0.
<mgrwt>
<rscale>  0 0.52468480E+02</rscale>
<asrwt>0</asrwt>
<pdfrwt beam="1">  1       13 0.10000000E+01 0.52468480E+02</pdfrwt>
<pdfrwt beam="2">  1       22 0.23058664E+00 0.52468480E+02</pdfrwt>
<totfact> 0.34561439E-01</totfact>
</mgrwt>
</event>
<event>
 4    1  0.2486873E+000  0.5103824E+02  0.7957747E-01  0.1439821E+00
         13   -1    0    0    0    0  0.00000000000E+00  0.00000000000E+00  0.99999944179E+02  0.99999999999E+02  0.10566000000E+00 0.  1.
         22   -1    0    0    0    0 -0.00000000000E+00 -0.00000000000E+00 -0.11994136562E+02  0.11994136562E+02  0.00000000000E+00 0.  1.
         13    1    1    2    0    0 -0.46942030230E+01  0.91031170549E+01 -0.19435437391E-01  0.10242744940E+02  0.10566000000E+00 0. -1.
        996    1    1    2    0    0  0.46942030230E+01 -0.91031170549E+01  0.88025243054E+02  0.10175139162E+03  0.50000000000E+02 0.  0.
<mgrwt>
<rscale>  0 0.51038243E+02</rscale>
<asrwt>0</asrwt>
<pdfrwt beam="1">  1       13 0.10000000E+01 0.51038243E+02</pdfrwt>
<pdfrwt beam="2">  1       22 0.11994161E+00 0.51038243E+02</pdfrwt>
<totfact> 0.10734117E+00</totfact>
</mgrwt>
</event>
<event>
 4    1  0.2486873E+000  0.5344097E+02  0.7957747E-01  0.1427619E+00
         13   -1    0    0    0    0  0.00000000000E+00  0.00000000000E+00  0.99999944181E+02  0.10000000000E+03  0.10566000000E+00 0.  1.
         22   -1    0    0    0    0 -0.00000000000E+00 -0.00000000000E+00 -0.13362421386E+02  0.13362421386E+02  0.00000000000E+00 0.  1.
         13    1    1    2    0    0  0.38624701015E+01  0.18466700482E+02  0.15681265612E+02  0.24532650840E+02  0.10566000000E+00 0. -1.
        996    1    1    2    0    0 -0.38624701015E+01 -0.18466700482E+02  0.70956257184E+02  0.88829770547E+02  0.50000000000E+02 0.  0.
<mgrwt>
<rscale>  0 0.53440974E+02</rscale>
<asrwt>0</asrwt>
<pdfrwt beam="1">  1       13 0.10000000E+01 0.53440974E+02</pdfrwt>
<pdfrwt beam="2">  1       22 0.13362446E+00 0.53440974E+02</pdfrwt>
<totfact> 0.91158886E-01</totfact>
</mgrwt>
</event>
<event>
 4    1  0.2486873E+000  0.5155184E+02  0.7957747E-01  0.1437147E+00
         13   -1    0    0    0    0  0.00000000000E+00  0.00000000000E+00  0.99999944183E+02  0.10000000000E+03  0.10566000000E+00 0.  1.
         22   -1    0    0    0    0 -0.00000000000E+00 -0.00000000000E+00 -0.10274423445E+02  0.10274423445E+02  0.00000000000E+00 0.  1.
         13    1    1    2    0    0 -0.12551924516E+02 -0.20462846521E+00  0.17889404536E+02  0.21854853936E+02  0.10566000000E+00 0. -1.
        996    1    1    2    0    0  0.12551924516E+02  0.20462846521E+00  0.71836116201E+02  0.88419569512E+02  0.50000000000E+02 0.  0.
<mgrwt>
<rscale>  0 0.51551845E+02</rscale>
<asrwt>0</asrwt>
<pdfrwt beam="1">  1       13 0.10000000E+01 0.51551845E+02</pdfrwt>
<pdfrwt beam="2">  1       22 0.10274448E+00 0.51551845E+02</pdfrwt>
<totfact> 0.13539211E+00</totfact>
</mgrwt>
</event>
<event>
 4    1  0.2486873E+000  0.5907833E+02  0.7957747E-01  0.1401741E+00
         13   -1    0    0    0    0  0.00000000000E+00  0.00000000000E+00  0.99999944175E+02  0.99999999995E+02  0.10566000000E+00 0. -1.
         22   -1    0    0    0    0 -0.00000000000E+00 -0.00000000000E+00 -0.21715848307E+02  0.21715848307E+02  0.00000000000E+00 0.  1.
         13    1    1    2    0    0  0.12211086189E+02 -0.29002386509E+02  0.14104551154E+02  0.34484758610E+02  0.10566000000E+00 0.  1.
        996    1    1    2    0    0 -0.12211086189E+02  0.29002386509E+02  0.64179544714E+02  0.87231089692E+02  0.50000000000E+02 0.  0.
<mgrwt>
<rscale>  0 0.59078330E+02</rscale>
<asrwt>0</asrwt>
<pdfrwt beam="1">  1       13 0.10000000E+01 0.59078330E+02</pdfrwt>
<pdfrwt beam="2">  1       22 0.21715870E+00 0.59078330E+02</pdfrwt>
<totfact> 0.39218942E-01</totfact>
</mgrwt>
</event>
<event>
 4    1  0.2486873E+000  0.5540341E+02  0.7957747E-01  0.1418201E+00
         13   -1    0    0    0    0  0.00000000000E+00  0.00000000000E+00  0.99999944183E+02  0.10000000000E+03  0.10566000000E+00 0.  1.
         22   -1    0    0    0    0 -0.00000000000E+00 -0.00000000000E+00 -0.16081458355E+02  0.16081458355E+02  0.00000000000E+00 0. -1.
         13    1    1    2    0    0  0.31158328396E+01  0.23660724743E+02  0.17528132756E+02  0.29610554057E+02  0.10566000000E+00 0. -1.
        996    1    1    2    0    0 -0.31158328396E+01 -0.23660724743E+02  0.66390353072E+02  0.86470904301E+02  0.50000000000E+02 0.  0.
<mgrwt>
<rscale>  0 0.55403414E+02</rscale>
<asrwt>0</asrwt>
<pdfrwt beam="1">  1       13 0.10000000E+01 0.55403414E+02</pdfrwt>
<pdfrwt beam="2">  1       22 0.16081482E+00 0.55403414E+02</pdfrwt>
<totfact> 0.67378663E-01</totfact>
</mgrwt>
</event>
<event>
 4    1  0.2486873E+000  0.5559559E+02  0.7957747E-01  0.1417303E+00
         13   -1    0    0    0    0  0.00000000000E+00  0.00000000000E+00  0.99999944173E+02  0.99999999993E+02  0.10566000000E+00 0. -1.
         22   -1    0    0    0    0 -0.00000000000E+00 -0.00000000000E+00 -0.21778839583E+02  0.21778839583E+02  0.00000000000E+00 0.  1.
         13    1    1    2    0    0  0.19056119929E+02  0.15090851479E+02 -0.17617823880E+01  0.24371798176E+02  0.10566000000E+00 0.  1.
        996    1    1    2    0    0 -0.19056119929E+02 -0.15090851479E+02  0.79982886977E+02  0.97407041400E+02  0.50000000000E+02 0.  0.
<mgrwt>
<rscale>  0 0.55595589E+02</rscale>
<asrwt>0</asrwt>
<pdfrwt beam="1">  1       13 0.10000000E+01 0.55595589E+02</pdfrwt>
<pdfrwt beam="2">  1       22 0.21778861E+00 0.55595589E+02</pdfrwt>
<totfact> 0.38791976E-01</totfact>
</mgrwt>
</event>
<event>
 4    1  0.2486873E+000  0.7145019E+02  0.7957747E-01  0.1355230E+00
         13   -1    0    0    0    0  0.00000000000E+00  0.00000000000E+00  0.99999944172E+02  0.99999999992E+02  0.10566000000E+00 0.  1.
         22   -1    0    0    0    0 -0.00000000000E+00 -0.00000000000E+00 -0.37880375779E+02  0.37880375779E+02  0.00000000000E+00 0. -1.
         13    1    1    2    0    0 -0.20292486582E+02  0.46833160588E+02  0.19212236624E+02  0.54536695376E+02  0.10566000000E+00 0. -1.
        996    1    1    2    0    0  0.20292486582E+02 -0.46833160588E+02  0.42907331769E+02  0.83343680396E+02  0.50000000000E+02 0.  0.
<mgrwt>
<rscale>  0 0.71450192E+02</rscale>
<asrwt>0</asrwt>
<pdfrwt beam="1">  1       13 0.10000000E+01 0.71450192E+02</pdfrwt>
<pdfrwt beam="2">  1       22 0.37880393E+00 0.71450192E+02</pdfrwt>
<totfact> 0.13872447E-01</totfact>
</mgrwt>
</event>
<event>
 4    1  0.2486873E+000  0.5354650E+02  0.7957747E-01  0.1427100E+00
         13   -1    0    0    0    0  0.00000000000E+00  0.00000000000E+00  0.99999944168E+02  0.99999999989E+02  0.10566000000E+00 0. -1.
         22   -1    0    0    0    0 -0.00000000000E+00 -0.00000000000E+00 -0.18683388494E+02  0.18683388494E+02  0.00000000000E+00 0.  1.
         13    1    1    2    0    0  0.18855809242E+02  0.34185482069E+01 -0.23934786346E+01  0.19312377327E+02  0.10566000000E+00 0.  1.
        996    1    1    2    0    0 -0.18855809242E+02 -0.34185482069E+01  0.83710034309E+02  0.99371011156E+02  0.50000000000E+02 0.  0.
<mgrwt>
<rscale>  0 0.53546503E+02</rscale>
<asrwt>0</asrwt>
<pdfrwt beam="1">  1       13 0.10000000E+01 0.53546503E+02</pdfrwt>
<pdfrwt beam="2">  1       22 0.18683411E+00 0.53546503E+02</pdfrwt>
<totfact> 0.51510035E-01</totfact>
</mgrwt>
</event>
<event>
 4    1  0.2486873E+000  0.5184082E+02  0.7957747E-01  0.1435658E+00
         13   -1    0    0    0    0  0.00000000000E+00  0.00000000000E+00  0.99999944171E+02  0.99999999991E+02  0.10566000000E+00 0.  1.
         22   -1    0    0    0    0 -0.00000000000E+00 -0.00000000000E+00 -0.12733956297E+02  0.12733956297E+02  0.00000000000E+00 0. -1.
         13    1    1    2    0    0  0.50298288285E+01 -0.12734667214E+02  0.33497448139E+01  0.14096200958E+02  0.10566000000E+00 0. -1.
        996    1    1    2    0    0 -0.50298288285E+01  0.12734667214E+02  0.83916243060E+02  0.98637755330E+02  0.50000000000E+02 0.  0.
<mgrwt>
<rscale>  0 0.51840823E+02</rscale>
<asrwt>0</asrwt>
<pdfrwt beam="1">  1       13 0.10000000E+01 0.51840823E+02</pdfrwt>
<pdfrwt beam="2">  1       22 0.12733981E+00 0.51840823E+02</pdfrwt>
<totfact> 0.98023739E-01</totfact>
</mgrwt>
</event>
<event>
 4    1  0.2486873E+000  0.5207803E+02  0.7957747E-01  0.1434445E+00
         13   -1    0    0    0    0  0.00000000000E+00  0.00000000000E+00  0.99999944183E+02  0.10000000000E+03  0.10566000000E+00 0.  1.
         22   -1    0    0    0    0 -0.00000000000E+00 -0.00000000000E+00 -0.18097526982E+02  0.18097526982E+02  0.00000000000E+00 0. -1.
         13    1    1    2    0    0  0.27443940848E+01  0.14303481524E+02 -0.61398136713E+01  0.15806003877E+02  0.10566000000E+00 0. -1.
        996    1    1    2    0    0 -0.27443940848E+01 -0.14303481524E+02  0.88042230873E+02  0.10229152311E+03  0.50000000000E+02 0.  0.
<mgrwt>
<rscale>  0 0.52078031E+02</rscale>
<asrwt>0</asrwt>
<pdfrwt beam="1">  1       13 0.10000000E+01 0.52078031E+02</pdfrwt>
<pdfrwt beam="2">  1       22 0.18097550E+00 0.52078031E+02</pdfrwt>
<totfact> 0.54418134E-01</totfact>
</mgrwt>
</event>
<event>
 4    1  0.2486873E+000  0.5245629E+02  0.7957747E-01  0.1432526E+00
         13   -1    0    0    0    0  0.00000000000E+00  0.00000000000E+00  0.99999944179E+02  0.99999999999E+02  0.10566000000E+00 0. -1.
         22   -1    0    0    0    0 -0.00000000000E+00 -0.00000000000E+00 -0.12507330078E+02  0.12507330078E+02  0.00000000000E+00 0. -1.
         13    1    1    2    0    0 -0.15454121139E+02  0.35822793989E+01  0.94242161682E+01  0.18452360290E+02  0.10566000000E+00 0.  1.
        996    1    1    2    0    0  0.15454121139E+02 -0.35822793989E+01  0.78068397933E+02  0.94054969787E+02  0.50000000000E+02 0.  0.
<mgrwt>
<rscale>  0 0.52456292E+02</rscale>
<asrwt>0</asrwt>
<pdfrwt beam="1">  1       13 0.10000000E+01 0.52456292E+02</pdfrwt>
<pdfrwt beam="2">  1       22 0.12507355E+00 0.52456292E+02</pdfrwt>
<totfact> 0.10094234E+00</totfact>
</mgrwt>
</event>
<event>
 4    1  0.2486873E+000  0.5279505E+02  0.7957747E-01  0.1430824E+00
         13   -1    0    0    0    0  0.00000000000E+00  0.00000000000E+00  0.99999944180E+02  0.10000000000E+03  0.10566000000E+00 0.  1.
         22   -1    0    0    0    0 -0.00000000000E+00 -0.00000000000E+00 -0.39919679396E+02  0.39919679396E+02  0.00000000000E+00 0. -1.
         13    1    1    2    0    0 -0.11127908111E+02  0.12786183135E+02 -0.30605059058E+02  0.34985677384E+02  0.10566000000E+00 0. -1.
        996    1    1    2    0    0  0.11127908111E+02 -0.12786183135E+02  0.90685323842E+02  0.10493400201E+03  0.50000000000E+02 0.  0.
<mgrwt>
<rscale>  0 0.52795045E+02</rscale>
<asrwt>0</asrwt>
<pdfrwt beam="1">  1       13 0.10000000E+01 0.52795045E+02</pdfrwt>
<pdfrwt beam="2">  1       22 0.39919696E+00 0.52795045E+02</pdfrwt>
<totfact> 0.12422637E-01</totfact>
</mgrwt>
</event>
<event>
 4    1  0.2486873E+000  0.5118656E+02  0.7957747E-01  0.1439045E+00
         13   -1    0    0    0    0  0.00000000000E+00  0.00000000000E+00  0.99999944179E+02  0.99999999999E+02  0.10566000000E+00 0. -1.
         22   -1    0    0    0    0 -0.00000000000E+00 -0.00000000000E+00 -0.11721858677E+02  0.11721858677E+02  0.00000000000E+00 0. -1.
         13    1    1    2    0    0  0.41291828804E+01  0.10149547409E+02  0.16220261796E+01  0.11077255835E+02  0.10566000000E+00 0.  1.
        996    1    1    2    0    0 -0.41291828804E+01 -0.10149547409E+02  0.86656059322E+02  0.10064460284E+03  0.50000000000E+02 0.  0.
<mgrwt>
<rscale>  0 0.51186555E+02</rscale>
<asrwt>0</asrwt>
<pdfrwt beam="1">  1       13 0.10000000E+01 0.51186555E+02</pdfrwt>
<pdfrwt beam="2">  1       22 0.11721883E+00 0.51186555E+02</pdfrwt>
<totfact> 0.11120185E+00</totfact>
</mgrwt>
</event>
<event>
 4    1  0.2486873E+000  0.5112494E+02  0.7957747E-01  0.1439367E+00
         13   -1    0    0    0    0  0.00000000000E+00  0.00000000000E+00  0.99999944183E+02  0.10000000000E+03  0.10566000000E+00 0.  1.
         22   -1    0    0    0    0 -0.00000000000E+00 -0.00000000000E+00 -0.28190928225E+02  0.28190928225E+02  0.00000000000E+00 0. -1.
         13    1    1    2    0    0  0.10389624568E+02 -0.24114307918E+01 -0.20250571949E+02  0.22887903473E+02  0.10566000000E+00 0. -1.
        996    1    1    2    0    0 -0.10389624568E+02  0.24114307918E+01  0.92059587906E+02  0.10530302476E+03  0.50000000000E+02 0.  0.
<mgrwt>
<rscale>  0 0.51124938E+02</rscale>
<asrwt>0</asrwt>
<pdfrwt beam="1">  1       13 0.10000000E+01 0.51124938E+02</pdfrwt>
<pdfrwt beam="2">  1       22 0.28190948E+00 0.51124938E+02</pdfrwt>
<totfact> 0.23273589E-01</totfact>
</mgrwt>
</event>
<event>
 4    1  0.2486873E+000  0.5137416E+02  0.7957747E-01  0.1438068E+00
         13   -1    0    0    0    0  0.00000000000E+00  0.00000000000E+00  0.99999944171E+02  0.99999999991E+02  0.10566000000E+00 0. -1.
         22   -1    0    0    0    0 -0.00000000000E+00 -0.00000000000E+00 -0.11185981861E+02  0.11185981861E+02  0.00000000000E+00 0. -1.
         13    1    1    2    0    0 -0.65644028342E+00  0.11784436300E+02  0.48686135457E+01  0.12767866487E+02  0.10566000000E+00 0.  1.
        996    1    1    2    0    0  0.65644028342E+00 -0.11784436300E+02  0.83945348765E+02  0.98418115365E+02  0.50000000000E+02 0.  0.
<mgrwt>
<rscale>  0 0.51374155E+02</rscale>
<asrwt>0</asrwt>
<pdfrwt beam="1">  1       13 0.10000000E+01 0.51374155E+02</pdfrwt>
<pdfrwt beam="2">  1       22 0.11186007E+00 0.51374155E+02</pdfrwt>
<totfact> 0.11937214E+00</totfact>
</mgrwt>
</event>
<event>
 4    1  0.2486873E+000  0.5214923E+02  0.7957747E-01  0.1434082E+00
         13   -1    0    0    0    0  0.00000000000E+00  0.00000000000E+00  0.99999944178E+02  0.99999999998E+02  0.10566000000E+00 0. -1.
         22   -1    0    0    0    0 -0.00000000000E+00 -0.00000000000E+00 -0.13489048650E+02  0.13489048650E+02  0.00000000000E+00 0.  1.
         13    1    1    2    0    0 -0.14702111313E+02 -0.18411178376E+01  0.31317935482E+01  0.15144671895E+02  0.10566000000E+00 0.  1.
        996    1    1    2    0    0  0.14702111313E+02  0.18411178376E+01  0.83379101980E+02  0.98344376753E+02  0.50000000000E+02 0.  0.
<mgrwt>
<rscale>  0 0.52149226E+02</rscale>
<asrwt>0</asrwt>
<pdfrwt beam="1">  1       13 0.10000000E+01 0.52149226E+02</pdfrwt>
<pdfrwt beam="2">  1       22 0.13489073E+00 0.52149226E+02</pdfrwt>
<totfact> 0.89554180E-01</totfact>
</mgrwt>
</event>
<event>
 4    1  0.2486873E+000  0.5343324E+02  0.7957747E-01  0.1427657E+00
         13   -1    0    0    0    0  0.00000000000E+00  0.00000000000E+00  0.99999944177E+02  0.99999999997E+02  0.10566000000E+00 0. -1.
         22   -1    0    0    0    0 -0.00000000000E+00 -0.00000000000E+00 -0.16179478006E+02  0.16179478006E+02  0.00000000000E+00 0.  1.
         13    1    1    2    0    0 -0.14810467885E+02 -0.11651661438E+02  0.26926187549E+01  0.19036085023E+02  0.10566000000E+00 0.  1.
        996    1    1    2    0    0  0.14810467885E+02  0.11651661438E+02  0.81127847416E+02  0.97143392980E+02  0.50000000000E+02 0.  0.
<mgrwt>
<rscale>  0 0.53433240E+02</rscale>
<asrwt>0</asrwt>
<pdfrwt beam="1">  1       13 0.10000000E+01 0.53433240E+02</pdfrwt>
<pdfrwt beam="2">  1       22 0.16179501E+00 0.53433240E+02</pdfrwt>
<totfact> 0.66431875E-01</totfact>
</mgrwt>
</event>
<event>
 4    1  0.2486873E+000  0.5440022E+02  0.7957747E-01  0.1422957E+00
         13   -1    0    0    0    0  0.00000000000E+00  0.00000000000E+00  0.99999944179E+02  0.99999999999E+02  0.10566000000E+00 0.  1.
         22   -1    0    0    0    0 -0.00000000000E+00 -0.00000000000E+00 -0.24915127663E+02  0.24915127663E+02  0.00000000000E+00 0. -1.
         13    1    1    2    0    0 -0.18173034190E+02  0.11363310011E+02 -0.10216197205E+02  0.23743753609E+02  0.10566000000E+00 0. -1.
        996    1    1    2    0    0  0.18173034190E+02 -0.11363310011E+02  0.85301013721E+02  0.10117137405E+03  0.50000000000E+02 0.  0.
<mgrwt>
<rscale>  0 0.54400220E+02</rscale>
<asrwt>0</asrwt>
<pdfrwt beam="1">  1       13 0.10000000E+01 0.54400220E+02</pdfrwt>
<pdfrwt beam="2">  1       22 0.24915149E+00 0.54400220E+02</pdfrwt>
<totfact> 0.29786818E-01</totfact>
</mgrwt>
</event>
<event>
 4    1  0.2486873E+000  0.5118770E+02  0.7957747E-01  0.1439039E+00
         13   -1    0    0    0    0  0.00000000000E+00  0.00000000000E+00  0.99999944177E+02  0.99999999997E+02  0.10566000000E+00 0.  1.
         22   -1    0    0    0    0 -0.00000000000E+00 -0.00000000000E+00 -0.23848638865E+02  0.23848638865E+02  0.00000000000E+00 0.  1.
         13    1    1    2    0    0 -0.88249339588E+01  0.65039724501E+01 -0.15432765257E+02  0.18930465513E+02  0.10566000000E+00 0. -1.
        996    1    1    2    0    0  0.88249339588E+01 -0.65039724501E+01  0.91584070569E+02  0.10491817335E+03  0.50000000000E+02 0.  0.
<mgrwt>
<rscale>  0 0.51187705E+02</rscale>
<asrwt>0</asrwt>
<pdfrwt beam="1">  1       13 0.10000000E+01 0.51187705E+02</pdfrwt>
<pdfrwt beam="2">  1       22 0.23848660E+00 0.51187705E+02</pdfrwt>
<totfact> 0.32294742E-01</totfact>
</mgrwt>
</event>
<event>
 4    1  0.2486873E+000  0.6765187E+02  0.7957747E-01  0.1368265E+00
         13   -1    0    0    0    0  0.00000000000E+00  0.00000000000E+00  0.99999944180E+02  0.10000000000E+03  0.10566000000E+00 0. -1.
         22   -1    0    0    0    0 -0.00000000000E+00 -0.00000000000E+00 -0.32572487329E+02  0.32572487329E+02  0.00000000000E+00 0.  1.
         13    1    1    2    0    0  0.40523621378E+02 -0.20847350036E+02  0.18999940782E+02  0.49373928412E+02  0.10566000000E+00 0.  1.
        996    1    1    2    0    0 -0.40523621378E+02  0.20847350036E+02  0.48427516069E+02  0.83198558916E+02  0.50000000000E+02 0.  0.
<mgrwt>
<rscale>  0 0.67651873E+02</rscale>
<asrwt>0</asrwt>
<pdfrwt beam="1">  1       13 0.10000000E+01 0.67651873E+02</pdfrwt>
<pdfrwt beam="2">  1       22 0.32572506E+00 0.67651873E+02</pdfrwt>
<totfact> 0.18112081E-01</totfact>
</mgrwt>
</event>
<event>
 4    1  0.2486873E+000  0.5145410E+02  0.7957747E-01  0.1437653E+00
         13   -1    0    0    0    0  0.00000000000E+00  0.00000000000E+00  0.99999944170E+02  0.99999999990E+02  0.10566000000E+00 0. -1.
         22   -1    0    0    0    0 -0.00000000000E+00 -0.00000000000E+00 -0.40091950798E+02  0.40091950798E+02  0.00000000000E+00 0.  1.
         13    1    1    2    0    0  0.11191311777E+02 -0.47200614420E+01 -0.32294922778E+02  0.34503588807E+02  0.10566000000E+00 0.  1.
        996    1    1    2    0    0 -0.11191311777E+02  0.47200614420E+01  0.92202916150E+02  0.10558836198E+03  0.50000000000E+02 0.  0.
<mgrwt>
<rscale>  0 0.51454100E+02</rscale>
<asrwt>0</asrwt>
<pdfrwt beam="1">  1       13 0.10000000E+01 0.51454100E+02</pdfrwt>
<pdfrwt beam="2">  1       22 0.40091968E+00 0.51454100E+02</pdfrwt>
<totfact> 0.12308499E-01</totfact>
</mgrwt>
</event>
<event>
 4    1  0.2486873E+000  0.5182939E+02  0.7957747E-01  0.1435717E+00
         13   -1    0    0    0    0  0.00000000000E+00  0.00000000000E+00  0.99999944183E+02  0.10000000000E+03  0.10566000000E+00 0.  1.
         22   -1    0    0    0    0 -0.00000000000E+00 -0.00000000000E+00 -0.11795013016E+02  0.11795013016E+02  0.00000000000E+00 0.  1.
         13    1    1    2    0    0 -0.10080317086E+02  0.92017794916E+01  0.66958274242E+01  0.15202986789E+02  0.10566000000E+00 0. -1.
        996    1    1    2    0    0  0.10080317086E+02 -0.92017794916E+01  0.81509103743E+02  0.96592026231E+02  0.50000000000E+02 0.  0.
<mgrwt>
<rscale>  0 0.51829389E+02</rscale>
<asrwt>0</asrwt>
<pdfrwt beam="1">  1       13 0.10000000E+01 0.51829389E+02</pdfrwt>
<pdfrwt beam="2">  1       22 0.11795038E+00 0.51829389E+02</pdfrwt>
<totfact> 0.11031712E+00</totfact>
</mgrwt>
</event>
<event>
 4    1  0.2486873E+000  0.7812656E+02  0.7957747E-01  0.1334454E+00
         13   -1    0    0    0    0  0.00000000000E+00  0.00000000000E+00  0.99999944176E+02  0.99999999997E+02  0.10566000000E+00 0.  1.
         22   -1    0    0    0    0 -0.00000000000E+00 -0.00000000000E+00 -0.66159656480E+02  0.66159656480E+02  0.00000000000E+00 0. -1.
         13    1    1    2    0    0  0.16295068466E+01  0.60009196305E+02 -0.28267884522E+02  0.66353925228E+02  0.10566000000E+00 0. -1.
        996    1    1    2    0    0 -0.16295068466E+01 -0.60009196305E+02  0.62108172219E+02  0.99805731249E+02  0.50000000000E+02 0.  0.
<mgrwt>
<rscale>  0 0.78126557E+02</rscale>
<asrwt>0</asrwt>
<pdfrwt beam="1">  1       13 0.10000000E+01 0.78126557E+02</pdfrwt>
<pdfrwt beam="2">  1       22 0.66159666E+00 0.78126557E+02</pdfrwt>
<totfact> 0.87235348E-02</totfact>
</mgrwt>
</event>
<event>
 4    1  0.2486873E+000  0.5277845E+02  0.7957747E-01  0.1430907E+00
         13   -1    0    0    0    0  0.00000000000E+00  0.00000000000E+00  0.99999944175E+02  0.99999999995E+02  0.10566000000E+00 0. -1.
         22   -1    0    0    0    0 -0.00000000000E+00 -0.00000000000E+00 -0.12844527401E+02  0.12844527401E+02  0.00000000000E+00 0. -1.
         13    1    1    2    0    0 -0.11195269552E+02  0.12658217824E+02  0.10912301578E+02  0.20116014232E+02  0.10566000000E+00 0.  1.
        996    1    1    2    0    0  0.11195269552E+02 -0.12658217824E+02  0.76243115196E+02  0.92728513164E+02  0.50000000000E+02 0.  0.
<mgrwt>
<rscale>  0 0.52778448E+02</rscale>
<asrwt>0</asrwt>
<pdfrwt beam="1">  1       13 0.10000000E+01 0.52778448E+02</pdfrwt>
<pdfrwt beam="2">  1       22 0.12844552E+00 0.52778448E+02</pdfrwt>
<totfact> 0.96901739E-01</totfact>
</mgrwt>
</event>
<event>
 4    1  0.2486873E+000  0.5251801E+02  0.7957747E-01  0.1432215E+00
         13   -1    0    0    0    0  0.00000000000E+00  0.00000000000E+00  0.99999944184E+02  0.10000000000E+03  0.10566000000E+00 0.  1.
         22   -1    0    0    0    0 -0.00000000000E+00 -0.00000000000E+00 -0.22814259922E+02  0.22814259922E+02  0.00000000000E+00 0. -1.
         13    1    1    2    0    0 -0.16026879699E+02  0.11314123733E+01 -0.11490508494E+02  0.19753073592E+02  0.10566000000E+00 0. -1.
        996    1    1    2    0    0  0.16026879699E+02 -0.11314123733E+01  0.88676192756E+02  0.10306118633E+03  0.50000000000E+02 0.  0.
<mgrwt>
<rscale>  0 0.52518006E+02</rscale>
<asrwt>0</asrwt>
<pdfrwt beam="1">  1       13 0.10000000E+01 0.52518006E+02</pdfrwt>
<pdfrwt beam="2">  1       22 0.22814281E+00 0.52518006E+02</pdfrwt>
<totfact> 0.35287329E-01</totfact>
</mgrwt>
</event>
<event>
 4    1  0.2486873E+000  0.5996972E+02  0.7957747E-01  0.1397959E+00
         13   -1    0    0    0    0  0.00000000000E+00  0.00000000000E+00  0.99999944174E+02  0.99999999994E+02  0.10566000000E+00 0. -1.
         22   -1    0    0    0    0 -0.00000000000E+00 -0.00000000000E+00 -0.70385356892E+02  0.70385356892E+02  0.00000000000E+00 0.  1.
         13    1    1    2    0    0  0.15551669368E+02  0.29232060041E+02 -0.56475778080E+02  0.65466727642E+02  0.10566000000E+00 0.  1.
        996    1    1    2    0    0 -0.15551669368E+02 -0.29232060041E+02  0.86090365362E+02  0.10491862924E+03  0.50000000000E+02 0.  0.
<mgrwt>
<rscale>  0 0.59969724E+02</rscale>
<asrwt>0</asrwt>
<pdfrwt beam="1">  1       13 0.10000000E+01 0.59969724E+02</pdfrwt>
<pdfrwt beam="2">  1       22 0.70385365E+00 0.59969724E+02</pdfrwt>
<totfact> 0.72647780E-02</totfact>
</mgrwt>
</event>
<event>
 4    1  0.2486873E+000  0.5499028E+02  0.7957747E-01  0.1420145E+00
         13   -1    0    0    0    0  0.00000000000E+00  0.00000000000E+00  0.99999944180E+02  0.10000000000E+03  0.10566000000E+00 0. -1.
         22   -1    0    0    0    0 -0.00000000000E+00 -0.00000000000E+00 -0.23273372350E+02  0.23273372350E+02  0.00000000000E+00 0.  1.
         13    1    1    2    0    0 -0.22874731792E+02  0.82314462422E+00 -0.62513505973E+01  0.23728073457E+02  0.10566000000E+00 0.  1.
        996    1    1    2    0    0  0.22874731792E+02 -0.82314462422E+00  0.82977922427E+02  0.99545298894E+02  0.50000000000E+02 0.  0.
<mgrwt>
<rscale>  0 0.54990280E+02</rscale>
<asrwt>0</asrwt>
<pdfrwt beam="1">  1       13 0.10000000E+01 0.54990280E+02</pdfrwt>
<pdfrwt beam="2">  1       22 0.23273394E+00 0.54990280E+02</pdfrwt>
<totfact> 0.34079798E-01</totfact>
</mgrwt>
</event>
<event>
 4    1  0.2486873E+000  0.5106573E+02  0.7957747E-01  0.1439677E+00
         13   -1    0    0    0    0  0.00000000000E+00  0.00000000000E+00  0.99999944176E+02  0.99999999996E+02  0.10566000000E+00 0. -1.
         22   -1    0    0    0    0 -0.00000000000E+00 -0.00000000000E+00 -0.14599037929E+02  0.14599037929E+02  0.00000000000E+00 0. -1.
         13    1    1    2    0    0 -0.70311791913E+01  0.76335745426E+01 -0.44167519437E+01  0.11279530260E+02  0.10566000000E+00 0.  1.
        996    1    1    2    0    0  0.70311791913E+01 -0.76335745426E+01  0.89817658191E+02  0.10331950766E+03  0.50000000000E+02 0.  0.
<mgrwt>
<rscale>  0 0.51065732E+02</rscale>
<asrwt>0</asrwt>
<pdfrwt beam="1">  1       13 0.10000000E+01 0.51065732E+02</pdfrwt>
<pdfrwt beam="2">  1       22 0.14599062E+00 0.51065732E+02</pdfrwt>
<totfact> 0.78594630E-01</totfact>
</mgrwt>
</event>
<event>
 4    1  0.2486873E+000  0.5300986E+02  0.7957747E-01  0.1429752E+00
         13   -1    0    0    0    0  0.00000000000E+00  0.00000000000E+00  0.99999944178E+02  0.99999999999E+02  0.10566000000E+00 0. -1.
         22   -1    0    0    0    0 -0.00000000000E+00 -0.00000000000E+00 -0.13216291558E+02  0.13216291558E+02  0.00000000000E+00 0. -1.
         13    1    1    2    0    0 -0.11250182968E+01 -0.17572130933E+02  0.34642442794E+02  0.38860718707E+02  0.10566000000E+00 0.  1.
        996    1    1    2    0    0  0.11250182968E+01  0.17572130933E+02  0.52141209826E+02  0.74355572850E+02  0.50000000000E+02 0.  0.
<mgrwt>
<rscale>  0 0.53009862E+02</rscale>
<asrwt>0</asrwt>
<pdfrwt beam="1">  1       13 0.10000000E+01 0.53009862E+02</pdfrwt>
<pdfrwt beam="2">  1       22 0.13216316E+00 0.53009862E+02</pdfrwt>
<totfact> 0.92682307E-01</totfact>
</mgrwt>
</event>
<event>
 4    1  0.2486873E+000  0.5129915E+02  0.7957747E-01  0.1438458E+00
         13   -1    0    0    0    0  0.00000000000E+00  0.00000000000E+00  0.99999944178E+02  0.99999999999E+02  0.10566000000E+00 0.  1.
         22   -1    0    0    0    0 -0.00000000000E+00 -0.00000000000E+00 -0.15747480581E+02  0.15747480581E+02  0.00000000000E+00 0. -1.
         13    1    1    2    0    0  0.10994272825E+01 -0.11419022108E+02 -0.52262033112E+01  0.12606632038E+02  0.10566000000E+00 0. -1.
        996    1    1    2    0    0 -0.10994272825E+01  0.11419022108E+02  0.89478666908E+02  0.10314084854E+03  0.50000000000E+02 0.  0.
<mgrwt>
<rscale>  0 0.51299150E+02</rscale>
<asrwt>0</asrwt>
<pdfrwt beam="1">  1       13 0.10000000E+01 0.51299150E+02</pdfrwt>
<pdfrwt beam="2">  1       22 0.15747504E+00 0.51299150E+02</pdfrwt>
<totfact> 0.69282315E-01</totfact>
</mgrwt>
</event>
<event>
 4    1  0.2486873E+000  0.5425211E+02  0.7957747E-01  0.1423669E+00
         13   -1    0    0    0    0  0.00000000000E+00  0.00000000000E+00  0.99999944179E+02  0.99999999999E+02  0.10566000000E+00 0.  1.
         22   -1    0    0    0    0 -0.00000000000E+00 -0.00000000000E+00 -0.14278490862E+02  0.14278490862E+02  0.00000000000E+00 0.  1.
         13    1    1    2    0    0 -0.85272317229E+01 -0.19250407245E+02  0.28410580921E+02  0.35361902272E+02  0.10566000000E+00 0. -1.
        996    1    1    2    0    0  0.85272317229E+01  0.19250407245E+02  0.57310872395E+02  0.78916588590E+02  0.50000000000E+02 0.  0.
<mgrwt>
<rscale>  0 0.54252114E+02</rscale>
<asrwt>0</asrwt>
<pdfrwt beam="1">  1       13 0.10000000E+01 0.54252114E+02</pdfrwt>
<pdfrwt beam="2">  1       22 0.14278515E+00 0.54252114E+02</pdfrwt>
<totfact> 0.82043947E-01</totfact>
</mgrwt>
</event>
<event>
 4    1  0.2486873E+000  0.5527533E+02  0.7957747E-01  0.1418801E+00
         13   -1    0    0    0    0  0.00000000000E+00  0.00000000000E+00  0.99999944177E+02  0.99999999997E+02  0.10566000000E+00 0.  1.
         22   -1    0    0    0    0 -0.00000000000E+00 -0.00000000000E+00 -0.47903739828E+02  0.47903739828E+02  0.00000000000E+00 0. -1.
         13    1    1    2    0    0  0.21006757730E+02 -0.10680722888E+02 -0.36518731149E+02  0.43462519491E+02  0.10566000000E+00 0. -1.
        996    1    1    2    0    0 -0.21006757730E+02  0.10680722888E+02  0.88614935498E+02  0.10444122033E+03  0.50000000000E+02 0.  0.
<mgrwt>
<rscale>  0 0.55275326E+02</rscale>
<asrwt>0</asrwt>
<pdfrwt beam="1">  1       13 0.10000000E+01 0.55275326E+02</pdfrwt>
<pdfrwt beam="2">  1       22 0.47903754E+00 0.55275326E+02</pdfrwt>
<totfact> 0.82825137E-02</totfact>
</mgrwt>
</event>
<event>
 4    1  0.2486873E+000  0.5290959E+02  0.7957747E-01  0.1430251E+00
         13   -1    0    0    0    0  0.00000000000E+00  0.00000000000E+00  0.99999944187E+02  0.10000000001E+03  0.10566000000E+00 0.  1.
         22   -1    0    0    0    0 -0.00000000000E+00 -0.00000000000E+00 -0.63863723867E+02  0.63863723867E+02  0.00000000000E+00 0. -1.
         13    1    1    2    0    0  0.71593595446E+01 -0.15753349809E+02 -0.55453076682E+02  0.58090268865E+02  0.10566000000E+00 0. -1.
        996    1    1    2    0    0 -0.71593595446E+01  0.15753349809E+02  0.91589297002E+02  0.10577345501E+03  0.50000000000E+02 0.  0.
<mgrwt>
<rscale>  0 0.52909588E+02</rscale>
<asrwt>0</asrwt>
<pdfrwt beam="1">  1       13 0.10000000E+01 0.52909588E+02</pdfrwt>
<pdfrwt beam="2">  1       22 0.63863734E+00 0.52909588E+02</pdfrwt>
<totfact> 0.82819354E-02</totfact>
</mgrwt>
</event>
<event>
 4    1  0.2486873E+000  0.5107636E+02  0.7957747E-01  0.1439621E+00
         13   -1    0    0    0    0  0.00000000000E+00  0.00000000000E+00  0.99999944177E+02  0.99999999997E+02  0.10566000000E+00 0.  1.
         22   -1    0    0    0    0 -0.00000000000E+00 -0.00000000000E+00 -0.11416087359E+02  0.11416087359E+02  0.00000000000E+00 0.  1.
         13    1    1    2    0    0 -0.30352305951E+01  0.99790639807E+01  0.16113104837E+01  0.10554706448E+02  0.10566000000E+00 0. -1.
        996    1    1    2    0    0  0.30352305951E+01 -0.99790639807E+01  0.86972546334E+02  0.10086138091E+03  0.50000000000E+02 0.  0.
<mgrwt>
<rscale>  0 0.51076358E+02</rscale>
<asrwt>0</asrwt>
<pdfrwt beam="1">  1       13 0.10000000E+01 0.51076358E+02</pdfrwt>
<pdfrwt beam="2">  1       22 0.11416112E+00 0.51076358E+02</pdfrwt>
<totfact> 0.11570225E+00</totfact>
</mgrwt>
</event>
<event>
 4    1  0.2486873E+000  0.5146910E+02  0.7957747E-01  0.1437575E+00
         13   -1    0    0    0    0  0.00000000000E+00  0.00000000000E+00  0.99999944171E+02  0.99999999991E+02  0.10566000000E+00 0. -1.
         22   -1    0    0    0    0 -0.00000000000E+00 -0.00000000000E+00 -0.19546758786E+02  0.19546758786E+02  0.00000000000E+00 0. -1.
         13    1    1    2    0    0  0.35645456725E+01  0.11677428694E+02 -0.97952445113E+01  0.15653316128E+02  0.10566000000E+00 0.  1.
        996    1    1    2    0    0 -0.35645456725E+01 -0.11677428694E+02  0.90248429896E+02  0.10389344265E+03  0.50000000000E+02 0.  0.
<mgrwt>
<rscale>  0 0.51469101E+02</rscale>
<asrwt>0</asrwt>
<pdfrwt beam="1">  1       13 0.10000000E+01 0.51469101E+02</pdfrwt>
<pdfrwt beam="2">  1       22 0.19546781E+00 0.51469101E+02</pdfrwt>
<totfact> 0.47233226E-01</totfact>
</mgrwt>
</event>
<event>
 4    1  0.2486873E+000  0.5105023E+02  0.7957747E-01  0.1439758E+00
         13   -1    0    0    0    0  0.00000000000E+00  0.00000000000E+00  0.99999944176E+02  0.99999999997E+02  0.10566000000E+00 0. -1.
         22   -1    0    0    0    0 -0.00000000000E+00 -0.00000000000E+00 -0.25452569834E+02  0.25452569834E+02  0.00000000000E+00 0.  1.
         13    1    1    2    0    0 -0.71179312806E+01  0.74472174558E+01 -0.17436143760E+02  0.20252315097E+02  0.10566000000E+00 0.  1.
        996    1    1    2    0    0  0.71179312806E+01 -0.74472174558E+01  0.91983518102E+02  0.10520025473E+03  0.50000000000E+02 0.  0.
<mgrwt>
<rscale>  0 0.51050230E+02</rscale>
<asrwt>0</asrwt>
<pdfrwt beam="1">  1       13 0.10000000E+01 0.51050230E+02</pdfrwt>
<pdfrwt beam="2">  1       22 0.25452591E+00 0.51050230E+02</pdfrwt>
<totfact> 0.28414515E-01</totfact>
</mgrwt>
</event>
<event>
 4    1  0.2486873E+000  0.5451191E+02  0.7957747E-01  0.1422421E+00
         13   -1    0    0    0    0  0.00000000000E+00  0.00000000000E+00  0.99999944181E+02  0.10000000000E+03  0.10566000000E+00 0.  1.
         22   -1    0    0    0    0 -0.00000000000E+00 -0.00000000000E+00 -0.18755833759E+02  0.18755833759E+02  0.00000000000E+00 0. -1.
         13    1    1    2    0    0 -0.94625714088E+01  0.19545021656E+02  0.98871253166E+00  0.21737912634E+02  0.10566000000E+00 0. -1.
        996    1    1    2    0    0  0.94625714088E+01 -0.19545021656E+02  0.80255397890E+02  0.97017921126E+02  0.50000000000E+02 0.  0.
<mgrwt>
<rscale>  0 0.54511908E+02</rscale>
<asrwt>0</asrwt>
<pdfrwt beam="1">  1       13 0.10000000E+01 0.54511908E+02</pdfrwt>
<pdfrwt beam="2">  1       22 0.18755856E+00 0.54511908E+02</pdfrwt>
<totfact> 0.51235996E-01</totfact>
</mgrwt>
</event>
<event>
 4    1  0.2486873E+000  0.6815256E+02  0.7957747E-01  0.1366490E+00
         13   -1    0    0    0    0  0.00000000000E+00  0.00000000000E+00  0.99999944180E+02  0.10000000000E+03  0.10566000000E+00 0. -1.
         22   -1    0    0    0    0 -0.00000000000E+00 -0.00000000000E+00 -0.66251368024E+02  0.66251368024E+02  0.00000000000E+00 0.  1.
         13    1    1    2    0    0 -0.29944381189E+02 -0.35328529292E+02 -0.43289706937E+02  0.63393854887E+02  0.10566000000E+00 0.  1.
        996    1    1    2    0    0  0.29944381189E+02  0.35328529292E+02  0.77038283093E+02  0.10285751314E+03  0.50000000000E+02 0.  0.
<mgrwt>
<rscale>  0 0.68152556E+02</rscale>
<asrwt>0</asrwt>
<pdfrwt beam="1">  1       13 0.10000000E+01 0.68152556E+02</pdfrwt>
<pdfrwt beam="2">  1       22 0.66251377E+00 0.68152556E+02</pdfrwt>
<totfact> 0.87190066E-02</totfact>
</mgrwt>
</event>
<event>
 4    1  0.2486873E+000  0.5102068E+02  0.7957747E-01  0.1439913E+00
         13   -1    0    0    0    0  0.00000000000E+00  0.00000000000E+00  0.99999944176E+02  0.99999999996E+02  0.10566000000E+00 0.  1.
         22   -1    0    0    0    0 -0.00000000000E+00 -0.00000000000E+00 -0.10616816351E+02  0.10616816351E+02  0.00000000000E+00 0.  1.
         13    1    1    2    0    0 -0.41661274760E+01 -0.92602879902E+01  0.35362759783E+01  0.10752951392E+02  0.10566000000E+00 0. -1.
        996    1    1    2    0    0  0.41661274760E+01  0.92602879902E+01  0.85846851847E+02  0.99863864955E+02  0.50000000000E+02 0.  0.
<mgrwt>
<rscale>  0 0.51020678E+02</rscale>
<asrwt>0</asrwt>
<pdfrwt beam="1">  1       13 0.10000000E+01 0.51020678E+02</pdfrwt>
<pdfrwt beam="2">  1       22 0.10616841E+00 0.51020678E+02</pdfrwt>
<totfact> 0.12887849E+00</totfact>
</mgrwt>
</event>
<event>
 4    1  0.2486873E+000  0.5231820E+02  0.7957747E-01  0.1433224E+00
         13   -1    0    0    0    0  0.00000000000E+00  0.00000000000E+00  0.99999944183E+02  0.10000000000E+03  0.10566000000E+00 0.  1.
         22   -1    0    0    0    0 -0.00000000000E+00 -0.00000000000E+00 -0.23621626145E+02  0.23621626145E+02  0.00000000000E+00 0. -1.
         13    1    1    2    0    0  0.30247848360E+01 -0.15101153125E+02 -0.12935131031E+02  0.20112755352E+02  0.10566000000E+00 0. -1.
        996    1    1    2    0    0 -0.30247848360E+01  0.15101153125E+02  0.89313449068E+02  0.10350887080E+03  0.50000000000E+02 0.  0.
<mgrwt>
<rscale>  0 0.52318201E+02</rscale>
<asrwt>0</asrwt>
<pdfrwt beam="1">  1       13 0.10000000E+01 0.52318201E+02</pdfrwt>
<pdfrwt beam="2">  1       22 0.23621647E+00 0.52318201E+02</pdfrwt>
<totfact> 0.32965289E-01</totfact>
</mgrwt>
</event>
<event>
 4    1  0.2486873E+000  0.5104907E+02  0.7957747E-01  0.1439764E+00
         13   -1    0    0    0    0  0.00000000000E+00  0.00000000000E+00  0.99999944187E+02  0.10000000001E+03  0.10566000000E+00 0.  1.
         22   -1    0    0    0    0 -0.00000000000E+00 -0.00000000000E+00 -0.22220213325E+02  0.22220213325E+02  0.00000000000E+00 0.  1.
         13    1    1    2    0    0  0.76036686245E+01 -0.69420152460E+01 -0.13892736901E+02  0.17292387194E+02  0.10566000000E+00 0. -1.
        996    1    1    2    0    0 -0.76036686245E+01  0.69420152460E+01  0.91672467764E+02  0.10492782614E+03  0.50000000000E+02 0.  0.
<mgrwt>
<rscale>  0 0.51049068E+02</rscale>
<asrwt>0</asrwt>
<pdfrwt beam="1">  1       13 0.10000000E+01 0.51049068E+02</pdfrwt>
<pdfrwt beam="2">  1       22 0.22220235E+00 0.51049068E+02</pdfrwt>
<totfact> 0.37042386E-01</totfact>
</mgrwt>
</event>
<event>
 4    1  0.2486873E+000  0.5300169E+02  0.7957747E-01  0.1429792E+00
         13   -1    0    0    0    0  0.00000000000E+00  0.00000000000E+00  0.99999944182E+02  0.10000000000E+03  0.10566000000E+00 0. -1.
         22   -1    0    0    0    0 -0.00000000000E+00 -0.00000000000E+00 -0.26034144648E+02  0.26034144648E+02  0.00000000000E+00 0.  1.
         13    1    1    2    0    0 -0.11358013389E+01 -0.17546758923E+02 -0.14576887690E+02  0.22840219179E+02  0.10566000000E+00 0.  1.
        996    1    1    2    0    0  0.11358013389E+01  0.17546758923E+02  0.88542687224E+02  0.10319392547E+03  0.50000000000E+02 0.  0.
<mgrwt>
<rscale>  0 0.53001687E+02</rscale>
<asrwt>0</asrwt>
<pdfrwt beam="1">  1       13 0.10000000E+01 0.53001687E+02</pdfrwt>
<pdfrwt beam="2">  1       22 0.26034165E+00 0.53001687E+02</pdfrwt>
<totfact> 0.27260646E-01</totfact>
</mgrwt>
</event>
<event>
 4    1  0.2486873E+000  0.5148215E+02  0.7957747E-01  0.1437507E+00
         13   -1    0    0    0    0  0.00000000000E+00  0.00000000000E+00  0.99999944176E+02  0.99999999996E+02  0.10566000000E+00 0. -1.
         22   -1    0    0    0    0 -0.00000000000E+00 -0.00000000000E+00 -0.11402275188E+02  0.11402275188E+02  0.00000000000E+00 0. -1.
         13    1    1    2    0    0 -0.30862435710E+01 -0.11869559629E+02  0.50439292295E+01  0.13261362346E+02  0.10566000000E+00 0.  1.
        996    1    1    2    0    0  0.30862435710E+01  0.11869559629E+02  0.83553739758E+02  0.98140912838E+02  0.50000000000E+02 0.  0.
<mgrwt>
<rscale>  0 0.51482146E+02</rscale>
<asrwt>0</asrwt>
<pdfrwt beam="1">  1       13 0.10000000E+01 0.51482146E+02</pdfrwt>
<pdfrwt beam="2">  1       22 0.11402300E+00 0.51482146E+02</pdfrwt>
<totfact> 0.11602194E+00</totfact>
</mgrwt>
</event>
<event>
 4    1  0.2486873E+000  0.6340505E+02  0.7957747E-01  0.1384073E+00
         13   -1    0    0    0    0  0.00000000000E+00  0.00000000000E+00  0.99999944176E+02  0.99999999996E+02  0.10566000000E+00 0.  1.
         22   -1    0    0    0    0 -0.00000000000E+00 -0.00000000000E+00 -0.34922595325E+02  0.34922595325E+02  0.00000000000E+00 0. -1.
         13    1    1    2    0    0 -0.49800973998E+01 -0.38670397317E+02 -0.62502123509E+01  0.39487685640E+02  0.10566000000E+00 0. -1.
        996    1    1    2    0    0  0.49800973998E+01  0.38670397317E+02  0.71327561202E+02  0.95434909681E+02  0.50000000000E+02 0.  0.
<mgrwt>
<rscale>  0 0.63405055E+02</rscale>
<asrwt>0</asrwt>
<pdfrwt beam="1">  1       13 0.10000000E+01 0.63405055E+02</pdfrwt>
<pdfrwt beam="2">  1       22 0.34922614E+00 0.63405055E+02</pdfrwt>
<totfact> 0.15944745E-01</totfact>
</mgrwt>
</event>
<event>
 4    1  0.2486873E+000  0.7414454E+02  0.7957747E-01  0.1346541E+00
         13   -1    0    0    0    0  0.00000000000E+00  0.00000000000E+00  0.99999944180E+02  0.10000000000E+03  0.10566000000E+00 0. -1.
         22   -1    0    0    0    0 -0.00000000000E+00 -0.00000000000E+00 -0.52111901126E+02  0.52111901126E+02  0.00000000000E+00 0.  1.
         13    1    1    2    0    0  0.13144394686E+02 -0.53147316543E+02 -0.12883660738E+02  0.56244219663E+02  0.10566000000E+00 0.  1.
        996    1    1    2    0    0 -0.13144394686E+02  0.53147316543E+02  0.60771703793E+02  0.95867681464E+02  0.50000000000E+02 0.  0.
<mgrwt>
<rscale>  0 0.74144537E+02</rscale>
<asrwt>0</asrwt>
<pdfrwt beam="1">  1       13 0.10000000E+01 0.74144537E+02</pdfrwt>
<pdfrwt beam="2">  1       22 0.52111915E+00 0.74144537E+02</pdfrwt>
<totfact> 0.66410616E-02</totfact>
</mgrwt>
</event>
<event>
 4    1  0.2486873E+000  0.5257043E+02  0.7957747E-01  0.1431951E+00
         13   -1    0    0    0    0  0.00000000000E+00  0.00000000000E+00  0.99999944179E+02  0.99999999999E+02  0.10566000000E+00 0. -1.
         22   -1    0    0    0    0 -0.00000000000E+00 -0.00000000000E+00 -0.12148984329E+02  0.12148984329E+02  0.00000000000E+00 0. -1.
         13    1    1    2    0    0 -0.13847502403E+02 -0.84791789566E+01  0.13651437917E+02  0.21213738940E+02  0.10566000000E+00 0.  1.
        996    1    1    2    0    0  0.13847502403E+02  0.84791789566E+01  0.74199521933E+02  0.90935245387E+02  0.50000000000E+02 0.  0.
<mgrwt>
<rscale>  0 0.52570427E+02</rscale>
<asrwt>0</asrwt>
<pdfrwt beam="1">  1       13 0.10000000E+01 0.52570427E+02</pdfrwt>
<pdfrwt beam="2">  1       22 0.12149009E+00 0.52570427E+02</pdfrwt>
<totfact> 0.10561021E+00</totfact>
</mgrwt>
</event>
<event>
 4    1  0.2486873E+000  0.5163078E+02  0.7957747E-01  0.1436739E+00
         13   -1    0    0    0    0  0.00000000000E+00  0.00000000000E+00  0.99999944178E+02  0.99999999998E+02  0.10566000000E+00 0.  1.
         22   -1    0    0    0    0 -0.00000000000E+00 -0.00000000000E+00 -0.15163059506E+02  0.15163059506E+02  0.00000000000E+00 0. -1.
         13    1    1    2    0    0 -0.11198065776E+02  0.63514029285E+01 -0.30516621186E+01  0.13231054456E+02  0.10566000000E+00 0. -1.
        996    1    1    2    0    0  0.11198065776E+02 -0.63514029285E+01  0.87888546790E+02  0.10193200505E+03  0.50000000000E+02 0.  0.
<mgrwt>
<rscale>  0 0.51630776E+02</rscale>
<asrwt>0</asrwt>
<pdfrwt beam="1">  1       13 0.10000000E+01 0.51630776E+02</pdfrwt>
<pdfrwt beam="2">  1       22 0.15163083E+00 0.51630776E+02</pdfrwt>
<totfact> 0.73890484E-01</totfact>
</mgrwt>
</event>
<event>
 4    1  0.2486873E+000  0.6503880E+02  0.7957747E-01  0.1377826E+00
         13   -1    0    0    0    0  0.00000000000E+00  0.00000000000E+00  0.99999944169E+02  0.99999999990E+02  0.10566000000E+00 0. -1.
         22   -1    0    0    0    0 -0.00000000000E+00 -0.00000000000E+00 -0.42246186783E+02  0.42246186783E+02  0.00000000000E+00 0.  1.
         13    1    1    2    0    0  0.11018799361E+02  0.40107753122E+02 -0.15406977928E+02  0.44355742951E+02  0.10566000000E+00 0.  1.
        996    1    1    2    0    0 -0.11018799361E+02 -0.40107753122E+02  0.73160735314E+02  0.97890443821E+02  0.50000000000E+02 0.  0.
<mgrwt>
<rscale>  0 0.65038802E+02</rscale>
<asrwt>0</asrwt>
<pdfrwt beam="1">  1       13 0.10000000E+01 0.65038802E+02</pdfrwt>
<pdfrwt beam="2">  1       22 0.42246203E+00 0.65038802E+02</pdfrwt>
<totfact> 0.11190639E-01</totfact>
</mgrwt>
</event>
<event>
 4    1  0.2486873E+000  0.5232375E+02  0.7957747E-01  0.1433196E+00
         13   -1    0    0    0    0  0.00000000000E+00  0.00000000000E+00  0.99999944181E+02  0.10000000000E+03  0.10566000000E+00 0.  1.
         22   -1    0    0    0    0 -0.00000000000E+00 -0.00000000000E+00 -0.18840449631E+02  0.18840449631E+02  0.00000000000E+00 0. -1.
         13    1    1    2    0    0 -0.13922801725E+02 -0.66280194757E+01 -0.65145540153E+01  0.16739941102E+02  0.10566000000E+00 0. -1.
        996    1    1    2    0    0  0.13922801725E+02  0.66280194757E+01  0.87674048565E+02  0.10210050853E+03  0.50000000000E+02 0.  0.
<mgrwt>
<rscale>  0 0.52323752E+02</rscale>
<asrwt>0</asrwt>
<pdfrwt beam="1">  1       13 0.10000000E+01 0.52323752E+02</pdfrwt>
<pdfrwt beam="2">  1       22 0.18840472E+00 0.52323752E+02</pdfrwt>
<totfact> 0.50617341E-01</totfact>
</mgrwt>
</event>
<event>
 4    1  0.2486873E+000  0.5360085E+02  0.7957747E-01  0.1426834E+00
         13   -1    0    0    0    0  0.00000000000E+00  0.00000000000E+00  0.99999944176E+02  0.99999999996E+02  0.10566000000E+00 0.  1.
         22   -1    0    0    0    0 -0.00000000000E+00 -0.00000000000E+00 -0.25857841283E+02  0.25857841283E+02  0.00000000000E+00 0.  1.
         13    1    1    2    0    0  0.16210732037E+02 -0.10500623686E+02 -0.13189819203E+02  0.23388745704E+02  0.10566000000E+00 0. -1.
        996    1    1    2    0    0 -0.16210732037E+02  0.10500623686E+02  0.87331922096E+02  0.10246909557E+03  0.50000000000E+02 0.  0.
<mgrwt>
<rscale>  0 0.53600848E+02</rscale>
<asrwt>0</asrwt>
<pdfrwt beam="1">  1       13 0.10000000E+01 0.53600848E+02</pdfrwt>
<pdfrwt beam="2">  1       22 0.25857862E+00 0.53600848E+02</pdfrwt>
<totfact> 0.27652325E-01</totfact>
</mgrwt>
</event>
<event>
 4    1  0.2486873E+000  0.5171019E+02  0.7957747E-01  0.1436330E+00
         13   -1    0    0    0    0  0.00000000000E+00  0.00000000000E+00  0.99999944180E+02  0.10000000000E+03  0.10566000000E+00 0.  1.
         22   -1    0    0    0    0 -0.00000000000E+00 -0.00000000000E+00 -0.14597163134E+02  0.14597163134E+02  0.00000000000E+00 0. -1.
         13    1    1    2    0    0  0.12719074789E+02 -0.34884270218E+01 -0.17030900690E+01  0.13298709200E+02  0.10566000000E+00 0. -1.
        996    1    1    2    0    0 -0.12719074789E+02  0.34884270218E+01  0.87105871115E+02  0.10129845393E+03  0.50000000000E+02 0.  0.
<mgrwt>
<rscale>  0 0.51710192E+02</rscale>
<asrwt>0</asrwt>
<pdfrwt beam="1">  1       13 0.10000000E+01 0.51710192E+02</pdfrwt>
<pdfrwt beam="2">  1       22 0.14597187E+00 0.51710192E+02</pdfrwt>
<totfact> 0.78717306E-01</totfact>
</mgrwt>
</event>
<event>
 4    1  0.2486873E+000  0.5675732E+02  0.7957747E-01  0.1411967E+00
         13   -1    0    0    0    0  0.00000000000E+00  0.00000000000E+00  0.99999944178E+02  0.99999999999E+02  0.10566000000E+00 0.  1.
         22   -1    0    0    0    0 -0.00000000000E+00 -0.00000000000E+00 -0.23644615855E+02  0.23644615855E+02  0.00000000000E+00 0. -1.
         13    1    1    2    0    0 -0.21280388274E+02  0.16387159819E+02 -0.19538719456E+01  0.26929959369E+02  0.10566000000E+00 0. -1.
        996    1    1    2    0    0  0.21280388274E+02 -0.16387159819E+02  0.78309200269E+02  0.96714656484E+02  0.50000000000E+02 0.  0.
<mgrwt>
<rscale>  0 0.56757325E+02</rscale>
<asrwt>0</asrwt>
<pdfrwt beam="1">  1       13 0.10000000E+01 0.56757325E+02</pdfrwt>
<pdfrwt beam="2">  1       22 0.23644637E+00 0.56757325E+02</pdfrwt>
<totfact> 0.33130080E-01</totfact>
</mgrwt>
</event>
<event>
 4    1  0.2486873E+000  0.6758470E+02  0.7957747E-01  0.1368504E+00
         13   -1    0    0    0    0  0.00000000000E+00  0.00000000000E+00  0.99999944186E+02  0.10000000001E+03  0.10566000000E+00 0. -1.
         22   -1    0    0    0    0 -0.00000000000E+00 -0.00000000000E+00 -0.32983564859E+02  0.32983564859E+02  0.00000000000E+00 0.  1.
         13    1    1    2    0    0 -0.43311643258E+02 -0.13848956687E+02  0.15634007723E+02  0.48084565138E+02  0.10566000000E+00 0.  1.
        996    1    1    2    0    0  0.43311643258E+02  0.13848956687E+02  0.51382371604E+02  0.84898999727E+02  0.50000000000E+02 0.  0.
<mgrwt>
<rscale>  0 0.67584703E+02</rscale>
<asrwt>0</asrwt>
<pdfrwt beam="1">  1       13 0.10000000E+01 0.67584703E+02</pdfrwt>
<pdfrwt beam="2">  1       22 0.32983584E+00 0.67584703E+02</pdfrwt>
<totfact> 0.17707876E-01</totfact>
</mgrwt>
</event>
<event>
 4    1  0.2486873E+000  0.5122007E+02  0.7957747E-01  0.1438870E+00
         13   -1    0    0    0    0  0.00000000000E+00  0.00000000000E+00  0.99999944178E+02  0.99999999998E+02  0.10566000000E+00 0. -1.
         22   -1    0    0    0    0 -0.00000000000E+00 -0.00000000000E+00 -0.97137488326E+01  0.97137488326E+01  0.00000000000E+00 0. -1.
         13    1    1    2    0    0  0.42088204011E+01  0.10285023959E+02  0.16249802358E+02  0.19686623065E+02  0.10566000000E+00 0.  1.
        996    1    1    2    0    0 -0.42088204011E+01 -0.10285023959E+02  0.74036392987E+02  0.90027125765E+02  0.50000000000E+02 0.  0.
<mgrwt>
<rscale>  0 0.51220073E+02</rscale>
<asrwt>0</asrwt>
<pdfrwt beam="1">  1       13 0.10000000E+01 0.51220073E+02</pdfrwt>
<pdfrwt beam="2">  1       22 0.97137740E-01 0.51220073E+02</pdfrwt>
<totfact> 0.14673334E+00</totfact>
</mgrwt>
</event>
<event>
 4    1  0.2486873E+000  0.5114590E+02  0.7957747E-01  0.1439257E+00
         13   -1    0    0    0    0  0.00000000000E+00  0.00000000000E+00  0.99999944182E+02  0.10000000000E+03  0.10566000000E+00 0.  1.
         22   -1    0    0    0    0 -0.00000000000E+00 -0.00000000000E+00 -0.15431479881E+02  0.15431479881E+02  0.00000000000E+00 0.  1.
         13    1    1    2    0    0  0.10100250773E+02 -0.37267320633E+01 -0.53213279339E+01  0.12009633324E+02  0.10566000000E+00 0. -1.
        996    1    1    2    0    0 -0.10100250773E+02  0.37267320633E+01  0.89889792235E+02  0.10342184656E+03  0.50000000000E+02 0.  0.
<mgrwt>
<rscale>  0 0.51145905E+02</rscale>
<asrwt>0</asrwt>
<pdfrwt beam="1">  1       13 0.10000000E+01 0.51145905E+02</pdfrwt>
<pdfrwt beam="2">  1       22 0.15431503E+00 0.51145905E+02</pdfrwt>
<totfact> 0.71675596E-01</totfact>
</mgrwt>
</event>
<event>
 4    1  0.2486873E+000  0.5190881E+02  0.7957747E-01  0.1435310E+00
         13   -1    0    0    0    0  0.00000000000E+00  0.00000000000E+00  0.99999944175E+02  0.99999999996E+02  0.10566000000E+00 0.  1.
         22   -1    0    0    0    0 -0.00000000000E+00 -0.00000000000E+00 -0.14170372439E+02  0.14170372439E+02  0.00000000000E+00 0.  1.
         13    1    1    2    0    0 -0.20895451822E+01  0.13789801922E+02  0.97384858304E-01  0.13947956265E+02  0.10566000000E+00 0. -1.
        996    1    1    2    0    0  0.20895451822E+01 -0.13789801922E+02  0.85732186878E+02  0.10022241617E+03  0.50000000000E+02 0.  0.
<mgrwt>
<rscale>  0 0.51908813E+02</rscale>
<asrwt>0</asrwt>
<pdfrwt beam="1">  1       13 0.10000000E+01 0.51908813E+02</pdfrwt>
<pdfrwt beam="2">  1       22 0.14170396E+00 0.51908813E+02</pdfrwt>
<totfact> 0.82671002E-01</totfact>
</mgrwt>
</event>
<event>
 4    1  0.2486873E+000  0.5335533E+02  0.7957747E-01  0.1428041E+00
         13   -1    0    0    0    0  0.00000000000E+00  0.00000000000E+00  0.99999944179E+02  0.10000000000E+03  0.10566000000E+00 0. -1.
         22   -1    0    0    0    0 -0.00000000000E+00 -0.00000000000E+00 -0.14210223774E+02  0.14210223774E+02  0.00000000000E+00 0.  1.
         13    1    1    2    0    0  0.24053445552E+00  0.18620764514E+02  0.89472534632E+01  0.20660475224E+02  0.10566000000E+00 0.  1.
        996    1    1    2    0    0 -0.24053445552E+00 -0.18620764514E+02  0.76842466943E+02  0.93549748550E+02  0.50000000000E+02 0.  0.
<mgrwt>
<rscale>  0 0.53355325E+02</rscale>
<asrwt>0</asrwt>
<pdfrwt beam="1">  1       13 0.10000000E+01 0.53355325E+02</pdfrwt>
<pdfrwt beam="2">  1       22 0.14210248E+00 0.53355325E+02</pdfrwt>
<totfact> 0.82539579E-01</totfact>
</mgrwt>
</event>
<event>
 4    1  0.2486873E+000  0.5101810E+02  0.7957747E-01  0.1439926E+00
         13   -1    0    0    0    0  0.00000000000E+00  0.00000000000E+00  0.99999944181E+02  0.10000000000E+03  0.10566000000E+00 0. -1.
         22   -1    0    0    0    0 -0.00000000000E+00 -0.00000000000E+00 -0.99885417325E+01  0.99885417325E+01  0.00000000000E+00 0. -1.
         13    1    1    2    0    0 -0.73005548879E+01 -0.70390944767E+01  0.62502512218E+01  0.11913175777E+02  0.10566000000E+00 0.  1.
        996    1    1    2    0    0  0.73005548879E+01  0.70390944767E+01  0.83761151227E+02  0.98075365957E+02  0.50000000000E+02 0.  0.
<mgrwt>
<rscale>  0 0.51018104E+02</rscale>
<asrwt>0</asrwt>
<pdfrwt beam="1">  1       13 0.10000000E+01 0.51018104E+02</pdfrwt>
<pdfrwt beam="2">  1       22 0.99885669E-01 0.51018104E+02</pdfrwt>
<totfact> 0.14087725E+00</totfact>
</mgrwt>
</event>
<event>
 4    1  0.2486873E+000  0.5175636E+02  0.7957747E-01  0.1436092E+00
         13   -1    0    0    0    0  0.00000000000E+00  0.00000000000E+00  0.99999944180E+02  0.10000000000E+03  0.10566000000E+00 0.  1.
         22   -1    0    0    0    0 -0.00000000000E+00 -0.00000000000E+00 -0.10816796281E+02  0.10816796281E+02  0.00000000000E+00 0.  1.
         13    1    1    2    0    0 -0.11502902081E+02  0.68120411974E+01  0.12504908109E+02  0.18305861149E+02  0.10566000000E+00 0. -1.
        996    1    1    2    0    0  0.11502902081E+02 -0.68120411974E+01  0.76678239790E+02  0.92510935131E+02  0.50000000000E+02 0.  0.
<mgrwt>
<rscale>  0 0.51756359E+02</rscale>
<asrwt>0</asrwt>
<pdfrwt beam="1">  1       13 0.10000000E+01 0.51756359E+02</pdfrwt>
<pdfrwt beam="2">  1       22 0.10816821E+00 0.51756359E+02</pdfrwt>
<totfact> 0.12559505E+00</totfact>
</mgrwt>
</event>
<event>
 4    1  0.2486873E+000  0.5422814E+02  0.7957747E-01  0.1423785E+00
         13   -1    0    0    0    0  0.00000000000E+00  0.00000000000E+00  0.99999944178E+02  0.99999999998E+02  0.10566000000E+00 0. -1.
         22   -1    0    0    0    0 -0.00000000000E+00 -0.00000000000E+00 -0.16505219570E+02  0.16505219570E+02  0.00000000000E+00 0.  1.
         13    1    1    2    0    0  0.16168247951E+02  0.13389515582E+02  0.58399267023E+01  0.21790072906E+02  0.10566000000E+00 0.  1.
        996    1    1    2    0    0 -0.16168247951E+02 -0.13389515582E+02  0.77654797906E+02  0.94715146661E+02  0.50000000000E+02 0.  0.
<mgrwt>
<rscale>  0 0.54228142E+02</rscale>
<asrwt>0</asrwt>
<pdfrwt beam="1">  1       13 0.10000000E+01 0.54228142E+02</pdfrwt>
<pdfrwt beam="2">  1       22 0.16505243E+00 0.54228142E+02</pdfrwt>
<totfact> 0.64282320E-01</totfact>
</mgrwt>
</event>
<event>
 4    1  0.2486873E+000  0.5708907E+02  0.7957747E-01  0.1410470E+00
         13   -1    0    0    0    0  0.00000000000E+00  0.00000000000E+00  0.99999944175E+02  0.99999999995E+02  0.10566000000E+00 0. -1.
         22   -1    0    0    0    0 -0.00000000000E+00 -0.00000000000E+00 -0.49914876690E+02  0.49914876690E+02  0.00000000000E+00 0.  1.
         13    1    1    2    0    0 -0.24171113340E+02 -0.13225685657E+02 -0.36788160593E+02  0.45962391203E+02  0.10566000000E+00 0.  1.
        996    1    1    2    0    0  0.24171113340E+02  0.13225685657E+02  0.86873228079E+02  0.10395248548E+03  0.50000000000E+02 0.  0.
<mgrwt>
<rscale>  0 0.57089066E+02</rscale>
<asrwt>0</asrwt>
<pdfrwt beam="1">  1       13 0.10000000E+01 0.57089066E+02</pdfrwt>
<pdfrwt beam="2">  1       22 0.49914891E+00 0.57089066E+02</pdfrwt>
<totfact> 0.74121387E-02</totfact>
</mgrwt>
</event>
<event>
 4    1  0.2486873E+000  0.5289492E+02  0.7957747E-01  0.1430325E+00
         13   -1    0    0    0    0  0.00000000000E+00  0.00000000000E+00  0.99999944178E+02  0.99999999998E+02  0.10566000000E+00 0.  1.
         22   -1    0    0    0    0 -0.00000000000E+00 -0.00000000000E+00 -0.13265741355E+02  0.13265741355E+02  0.00000000000E+00 0. -1.
         13    1    1    2    0    0  0.16081034161E+02  0.62667895399E+01  0.96359763616E+01  0.19767031019E+02  0.10566000000E+00 0. -1.
        996    1    1    2    0    0 -0.16081034161E+02 -0.62667895399E+01  0.77098226461E+02  0.93498710335E+02  0.50000000000E+02 0.  0.
<mgrwt>
<rscale>  0 0.52894918E+02</rscale>
<asrwt>0</asrwt>
<pdfrwt beam="1">  1       13 0.10000000E+01 0.52894918E+02</pdfrwt>
<pdfrwt beam="2">  1       22 0.13265766E+00 0.52894918E+02</pdfrwt>
<totfact> 0.92112330E-01</totfact>
</mgrwt>
</event>
<event>
 4    1  0.2486873E+000  0.5121796E+02  0.7957747E-01  0.1438881E+00
         13   -1    0    0    0    0  0.00000000000E+00  0.00000000000E+00  0.99999944173E+02  0.99999999993E+02  0.10566000000E+00 0. -1.
         22   -1    0    0    0    0 -0.00000000000E+00 -0.00000000000E+00 -0.13633358083E+02  0.13633358083E+02  0.00000000000E+00 0. -1.
         13    1    1    2    0    0  0.42123175120E+01 -0.10273076903E+02 -0.22037215776E+01  0.11320215576E+02  0.10566000000E+00 0.  1.
        996    1    1    2    0    0 -0.42123175120E+01  0.10273076903E+02  0.88570307668E+02  0.10231314250E+03  0.50000000000E+02 0.  0.
<mgrwt>
<rscale>  0 0.51217963E+02</rscale>
<asrwt>0</asrwt>
<pdfrwt beam="1">  1       13 0.10000000E+01 0.51217963E+02</pdfrwt>
<pdfrwt beam="2">  1       22 0.13633382E+00 0.51217963E+02</pdfrwt>
<totfact> 0.87866752E-01</totfact>
</mgrwt>
</event>
<event>
 4    1  0.2486873E+000  0.5143293E+02  0.7957747E-01  0.1437762E+00
         13   -1    0    0    0    0  0.00000000000E+00  0.00000000000E+00  0.99999944170E+02  0.99999999991E+02  0.10566000000E+00 0.  1.
         22   -1    0    0    0    0 -0.00000000000E+00 -0.00000000000E+00 -0.10786010730E+02  0.10786010730E+02  0.00000000000E+00 0.  1.
         13    1    1    2    0    0  0.80942143515E+01  0.89347511818E+01  0.30124830441E+02  0.32447845195E+02  0.10566000000E+00 0. -1.
        996    1    1    2    0    0 -0.80942143515E+01 -0.89347511818E+01  0.59089102999E+02  0.78338165525E+02  0.50000000000E+02 0.  0.
<mgrwt>
<rscale>  0 0.51432928E+02</rscale>
<asrwt>0</asrwt>
<pdfrwt beam="1">  1       13 0.10000000E+01 0.51432928E+02</pdfrwt>
<pdfrwt beam="2">  1       22 0.10786036E+00 0.51432928E+02</pdfrwt>
<totfact> 0.12603020E+00</totfact>
</mgrwt>
</event>
<event>
 4    1  0.2486873E+000  0.5190210E+02  0.7957747E-01  0.1435344E+00
         13   -1    0    0    0    0  0.00000000000E+00  0.00000000000E+00  0.99999944171E+02  0.99999999992E+02  0.10566000000E+00 0. -1.
         22   -1    0    0    0    0 -0.00000000000E+00 -0.00000000000E+00 -0.12991257483E+02  0.12991257483E+02  0.00000000000E+00 0. -1.
         13    1    1    2    0    0  0.12852111836E+02  0.53526977524E+01  0.29992460716E+01  0.14242008037E+02  0.10566000000E+00 0.  1.
        996    1    1    2    0    0 -0.12852111836E+02 -0.53526977524E+01  0.84009440617E+02  0.98749249438E+02  0.50000000000E+02 0.  0.
<mgrwt>
<rscale>  0 0.51902102E+02</rscale>
<asrwt>0</asrwt>
<pdfrwt beam="1">  1       13 0.10000000E+01 0.51902102E+02</pdfrwt>
<pdfrwt beam="2">  1       22 0.12991282E+00 0.51902102E+02</pdfrwt>
<totfact> 0.95006929E-01</totfact>
</mgrwt>
</event>
<event>
 4    1  0.2486873E+000  0.5299652E+02  0.7957747E-01  0.1429818E+00
         13   -1    0    0    0    0  0.00000000000E+00  0.00000000000E+00  0.99999944171E+02  0.99999999991E+02  0.10566000000E+00 0.  1.
         22   -1    0    0    0    0 -0.00000000000E+00 -0.00000000000E+00 -0.21228715828E+02  0.21228715828E+02  0.00000000000E+00 0. -1.
         13    1    1    2    0    0 -0.17329238115E+02  0.28858495000E+01 -0.81960519722E+01  0.19386001468E+02  0.10566000000E+00 0. -1.
        996    1    1    2    0    0  0.17329238115E+02 -0.28858495000E+01  0.86967280315E+02  0.10184271435E+03  0.50000000000E+02 0.  0.
<mgrwt>
<rscale>  0 0.52996515E+02</rscale>
<asrwt>0</asrwt>
<pdfrwt beam="1">  1       13 0.10000000E+01 0.52996515E+02</pdfrwt>
<pdfrwt beam="2">  1       22 0.21228738E+00 0.52996515E+02</pdfrwt>
<totfact> 0.40562549E-01</totfact>
</mgrwt>
</event>
<event>
 4    1  0.2486873E+000  0.5653079E+02  0.7957747E-01  0.1412995E+00
         13   -1    0    0    0    0  0.00000000000E+00  0.00000000000E+00  0.99999944177E+02  0.99999999997E+02  0.10566000000E+00 0. -1.
         22   -1    0    0    0    0 -0.00000000000E+00 -0.00000000000E+00 -0.20840139114E+02  0.20840139114E+02  0.00000000000E+00 0.  1.
         13    1    1    2    0    0  0.11590354495E+02 -0.23693754491E+02  0.38234600577E+01  0.26652585804E+02  0.10566000000E+00 0.  1.
        996    1    1    2    0    0 -0.11590354495E+02  0.23693754491E+02  0.75336345005E+02  0.94187553307E+02  0.50000000000E+02 0.  0.
<mgrwt>
<rscale>  0 0.56530791E+02</rscale>
<asrwt>0</asrwt>
<pdfrwt beam="1">  1       13 0.10000000E+01 0.56530791E+02</pdfrwt>
<pdfrwt beam="2">  1       22 0.20840161E+00 0.56530791E+02</pdfrwt>
<totfact> 0.42257722E-01</totfact>
</mgrwt>
</event>
<event>
 4    1  0.2486873E+000  0.5660177E+02  0.7957747E-01  0.1412672E+00
         13   -1    0    0    0    0  0.00000000000E+00  0.00000000000E+00  0.99999944173E+02  0.99999999994E+02  0.10566000000E+00 0.  1.
         22   -1    0    0    0    0 -0.00000000000E+00 -0.00000000000E+00 -0.18364634194E+02  0.18364634194E+02  0.00000000000E+00 0. -1.
         13    1    1    2    0    0 -0.19293388960E+02  0.18207846332E+02  0.13437323952E+02  0.29737743099E+02  0.10566000000E+00 0. -1.
        996    1    1    2    0    0  0.19293388960E+02 -0.18207846332E+02  0.68197986028E+02  0.88626891088E+02  0.50000000000E+02 0.  0.
<mgrwt>
<rscale>  0 0.56601771E+02</rscale>
<asrwt>0</asrwt>
<pdfrwt beam="1">  1       13 0.10000000E+01 0.56601771E+02</pdfrwt>
<pdfrwt beam="2">  1       22 0.18364657E+00 0.56601771E+02</pdfrwt>
<totfact> 0.53429960E-01</totfact>
</mgrwt>
</event>
<event>
 4    1  0.2486873E+000  0.6522101E+02  0.7957747E-01  0.1377142E+00
         13   -1    0    0    0    0  0.00000000000E+00  0.00000000000E+00  0.99999944171E+02  0.99999999991E+02  0.10566000000E+00 0.  1.
         22   -1    0    0    0    0 -0.00000000000E+00 -0.00000000000E+00 -0.66872277563E+02  0.66872277563E+02  0.00000000000E+00 0. -1.
         13    1    1    2    0    0 -0.51235359902E+01 -0.41563560856E+02 -0.47397184652E+02  0.63247802247E+02  0.10566000000E+00 0. -1.
        996    1    1    2    0    0  0.51235359902E+01  0.41563560856E+02  0.80524851261E+02  0.10362447531E+03  0.50000000000E+02 0.  0.
<mgrwt>
<rscale>  0 0.65221011E+02</rscale>
<asrwt>0</asrwt>
<pdfrwt beam="1">  1       13 0.10000000E+01 0.65221011E+02</pdfrwt>
<pdfrwt beam="2">  1       22 0.66872287E+00 0.65221011E+02</pdfrwt>
<totfact> 0.86506030E-02</totfact>
</mgrwt>
</event>
<event>
 4    1  0.2486873E+000  0.5177008E+02  0.7957747E-01  0.1436022E+00
         13   -1    0    0    0    0  0.00000000000E+00  0.00000000000E+00  0.99999944175E+02  0.99999999996E+02  0.10566000000E+00 0. -1.
         22   -1    0    0    0    0 -0.00000000000E+00 -0.00000000000E+00 -0.10699293127E+02  0.10699293127E+02  0.00000000000E+00 0. -1.
         13    1    1    2    0    0  0.13280290137E+02 -0.19428227463E+01  0.22304382596E+02  0.26031467752E+02  0.10566000000E+00 0.  1.
        996    1    1    2    0    0 -0.13280290137E+02  0.19428227463E+01  0.66996268453E+02  0.84667825370E+02  0.50000000000E+02 0.  0.
<mgrwt>
<rscale>  0 0.51770075E+02</rscale>
<asrwt>0</asrwt>
<pdfrwt beam="1">  1       13 0.10000000E+01 0.51770075E+02</pdfrwt>
<pdfrwt beam="2">  1       22 0.10699318E+00 0.51770075E+02</pdfrwt>
<totfact> 0.12764324E+00</totfact>
</mgrwt>
</event>
<event>
 4    1  0.2486873E+000  0.5297835E+02  0.7957747E-01  0.1429909E+00
         13   -1    0    0    0    0  0.00000000000E+00  0.00000000000E+00  0.99999944179E+02  0.99999999999E+02  0.10566000000E+00 0. -1.
         22   -1    0    0    0    0 -0.00000000000E+00 -0.00000000000E+00 -0.12694234142E+02  0.12694234142E+02  0.00000000000E+00 0.  1.
         13    1    1    2    0    0  0.16997894614E+02  0.42162497256E+01  0.15012205787E+02  0.23066917213E+02  0.10566000000E+00 0.  1.
        996    1    1    2    0    0 -0.16997894614E+02 -0.42162497256E+01  0.72293504250E+02  0.89627316928E+02  0.50000000000E+02 0.  0.
<mgrwt>
<rscale>  0 0.52978346E+02</rscale>
<asrwt>0</asrwt>
<pdfrwt beam="1">  1       13 0.10000000E+01 0.52978346E+02</pdfrwt>
<pdfrwt beam="2">  1       22 0.12694259E+00 0.52978346E+02</pdfrwt>
<totfact> 0.98746764E-01</totfact>
</mgrwt>
</event>
<event>
 4    1  0.2486873E+000  0.5310857E+02  0.7957747E-01  0.1429261E+00
         13   -1    0    0    0    0  0.00000000000E+00  0.00000000000E+00  0.99999944184E+02  0.10000000000E+03  0.10566000000E+00 0. -1.
         22   -1    0    0    0    0 -0.00000000000E+00 -0.00000000000E+00 -0.19353284212E+02  0.19353284212E+02  0.00000000000E+00 0.  1.
         13    1    1    2    0    0 -0.16758149848E+02  0.62995600372E+01 -0.49896976239E+01  0.18585701208E+02  0.10566000000E+00 0.  1.
        996    1    1    2    0    0  0.16758149848E+02 -0.62995600372E+01  0.85636357595E+02  0.10076758301E+03  0.50000000000E+02 0.  0.
<mgrwt>
<rscale>  0 0.53108568E+02</rscale>
<asrwt>0</asrwt>
<pdfrwt beam="1">  1       13 0.10000000E+01 0.53108568E+02</pdfrwt>
<pdfrwt beam="2">  1       22 0.19353307E+00 0.53108568E+02</pdfrwt>
<totfact> 0.48252059E-01</totfact>
</mgrwt>
</event>
<event>
 4    1  0.2486873E+000  0.5171873E+02  0.7957747E-01  0.1436286E+00
         13   -1    0    0    0    0  0.00000000000E+00  0.00000000000E+00  0.99999944180E+02  0.10000000000E+03  0.10566000000E+00 0.  1.
         22   -1    0    0    0    0 -0.00000000000E+00 -0.00000000000E+00 -0.13181279285E+02  0.13181279285E+02  0.00000000000E+00 0.  1.
         13    1    1    2    0    0  0.12832899724E+02 -0.31849277771E+01  0.13614746259E+01  0.13292548946E+02  0.10566000000E+00 0. -1.
        996    1    1    2    0    0 -0.12832899724E+02  0.31849277771E+01  0.85457190269E+02  0.99888730340E+02  0.50000000000E+02 0.  0.
<mgrwt>
<rscale>  0 0.51718730E+02</rscale>
<asrwt>0</asrwt>
<pdfrwt beam="1">  1       13 0.10000000E+01 0.51718730E+02</pdfrwt>
<pdfrwt beam="2">  1       22 0.13181304E+00 0.51718730E+02</pdfrwt>
<totfact> 0.92816271E-01</totfact>
</mgrwt>
</event>
<event>
 4    1  0.2486873E+000  0.5698992E+02  0.7957747E-01  0.1410916E+00
         13   -1    0    0    0    0  0.00000000000E+00  0.00000000000E+00  0.99999944192E+02  0.10000000001E+03  0.10566000000E+00 0. -1.
         22   -1    0    0    0    0 -0.00000000000E+00 -0.00000000000E+00 -0.72717978488E+02  0.72717978488E+02  0.00000000000E+00 0.  1.
         13    1    1    2    0    0  0.11421830286E+02  0.24847395052E+02 -0.61450222564E+02  0.67260629384E+02  0.10566000000E+00 0.  1.
        996    1    1    2    0    0 -0.11421830286E+02 -0.24847395052E+02  0.88732188267E+02  0.10545734912E+03  0.50000000000E+02 0.  0.
<mgrwt>
<rscale>  0 0.56989922E+02</rscale>
<asrwt>0</asrwt>
<pdfrwt beam="1">  1       13 0.10000000E+01 0.56989922E+02</pdfrwt>
<pdfrwt beam="2">  1       22 0.72717986E+00 0.56989922E+02</pdfrwt>
<totfact> 0.60231976E-02</totfact>
</mgrwt>
</event>
<event>
 4    1  0.2486873E+000  0.5124755E+02  0.7957747E-01  0.1438726E+00
         13   -1    0    0    0    0  0.00000000000E+00  0.00000000000E+00  0.99999944174E+02  0.99999999994E+02  0.10566000000E+00 0.  1.
         22   -1    0    0    0    0 -0.00000000000E+00 -0.00000000000E+00 -0.22244152893E+02  0.22244152893E+02  0.00000000000E+00 0.  1.
         13    1    1    2    0    0  0.18184034739E+01  0.11090775131E+02 -0.13510285990E+02  0.17574153629E+02  0.10566000000E+00 0. -1.
        996    1    1    2    0    0 -0.18184034739E+01 -0.11090775131E+02  0.91266077271E+02  0.10466999926E+03  0.50000000000E+02 0.  0.
<mgrwt>
<rscale>  0 0.51247555E+02</rscale>
<asrwt>0</asrwt>
<pdfrwt beam="1">  1       13 0.10000000E+01 0.51247555E+02</pdfrwt>
<pdfrwt beam="2">  1       22 0.22244175E+00 0.51247555E+02</pdfrwt>
<totfact> 0.36978257E-01</totfact>
</mgrwt>
</event>
<event>
 4    1  0.2486873E+000  0.5235477E+02  0.7957747E-01  0.1433039E+00
         13   -1    0    0    0    0  0.00000000000E+00  0.00000000000E+00  0.99999944177E+02  0.99999999997E+02  0.10566000000E+00 0. -1.
         22   -1    0    0    0    0 -0.00000000000E+00 -0.00000000000E+00 -0.33709123081E+02  0.33709123081E+02  0.00000000000E+00 0.  1.
         13    1    1    2    0    0  0.15404718706E+02 -0.19279066805E+01 -0.24441354449E+02  0.28955364856E+02  0.10566000000E+00 0.  1.
        996    1    1    2    0    0 -0.15404718706E+02  0.19279066805E+01  0.90732175545E+02  0.10475375822E+03  0.50000000000E+02 0.  0.
<mgrwt>
<rscale>  0 0.52354772E+02</rscale>
<asrwt>0</asrwt>
<pdfrwt beam="1">  1       13 0.10000000E+01 0.52354772E+02</pdfrwt>
<pdfrwt beam="2">  1       22 0.33709142E+00 0.52354772E+02</pdfrwt>
<totfact> 0.16786607E-01</totfact>
</mgrwt>
</event>
<event>
 4    1  0.2486873E+000  0.5156650E+02  0.7957747E-01  0.1437071E+00
         13   -1    0    0    0    0  0.00000000000E+00  0.00000000000E+00  0.99999944174E+02  0.99999999994E+02  0.10566000000E+00 0. -1.
         22   -1    0    0    0    0 -0.00000000000E+00 -0.00000000000E+00 -0.20628887406E+02  0.20628887406E+02  0.00000000000E+00 0. -1.
         13    1    1    2    0    0 -0.11315814835E+02  0.55728589230E+01 -0.10897640815E+02  0.16669557922E+02  0.10566000000E+00 0.  1.
        996    1    1    2    0    0  0.11315814835E+02 -0.55728589230E+01  0.90268697583E+02  0.10395932948E+03  0.50000000000E+02 0.  0.
<mgrwt>
<rscale>  0 0.51566505E+02</rscale>
<asrwt>0</asrwt>
<pdfrwt beam="1">  1       13 0.10000000E+01 0.51566505E+02</pdfrwt>
<pdfrwt beam="2">  1       22 0.20628910E+00 0.51566505E+02</pdfrwt>
<totfact> 0.42719150E-01</totfact>
</mgrwt>
</event>
<event>
 4    1  0.2486873E+000  0.5249787E+02  0.7957747E-01  0.1432316E+00
         13   -1    0    0    0    0  0.00000000000E+00  0.00000000000E+00  0.99999944185E+02  0.10000000001E+03  0.10566000000E+00 0. -1.
         22   -1    0    0    0    0 -0.00000000000E+00 -0.00000000000E+00 -0.12780616321E+02  0.12780616321E+02  0.00000000000E+00 0. -1.
         13    1    1    2    0    0  0.13114657007E+02  0.91668871824E+01  0.83826443484E+01  0.18063940305E+02  0.10566000000E+00 0.  1.
        996    1    1    2    0    0 -0.13114657007E+02 -0.91668871824E+01  0.78836683516E+02  0.94716676023E+02  0.50000000000E+02 0.  0.
<mgrwt>
<rscale>  0 0.52497867E+02</rscale>
<asrwt>0</asrwt>
<pdfrwt beam="1">  1       13 0.10000000E+01 0.52497867E+02</pdfrwt>
<pdfrwt beam="2">  1       22 0.12780641E+00 0.52497867E+02</pdfrwt>
<totfact> 0.97603638E-01</totfact>
</mgrwt>
</event>
<event>
 4    1  0.2486873E+000  0.5260123E+02  0.7957747E-01  0.1431796E+00
         13   -1    0    0    0    0  0.00000000000E+00  0.00000000000E+00  0.99999944180E+02  0.10000000000E+03  0.10566000000E+00 0.  1.
         22   -1    0    0    0    0 -0.00000000000E+00 -0.00000000000E+00 -0.24201907917E+02  0.24201907917E+02  0.00000000000E+00 0. -1.
         13    1    1    2    0    0  0.87549863426E+01  0.13792738679E+02 -0.13077642570E+02  0.20926665414E+02  0.10566000000E+00 0. -1.
        996    1    1    2    0    0 -0.87549863426E+01 -0.13792738679E+02  0.88875678832E+02  0.10327524250E+03  0.50000000000E+02 0.  0.
<mgrwt>
<rscale>  0 0.52601230E+02</rscale>
<asrwt>0</asrwt>
<pdfrwt beam="1">  1       13 0.10000000E+01 0.52601230E+02</pdfrwt>
<pdfrwt beam="2">  1       22 0.24201929E+00 0.52601230E+02</pdfrwt>
<totfact> 0.31449591E-01</totfact>
</mgrwt>
</event>
<event>
 4    1  0.2486873E+000  0.5963071E+02  0.7957747E-01  0.1399388E+00
         13   -1    0    0    0    0  0.00000000000E+00  0.00000000000E+00  0.99999944179E+02  0.99999999999E+02  0.10566000000E+00 0. -1.
         22   -1    0    0    0    0 -0.00000000000E+00 -0.00000000000E+00 -0.34766221108E+02  0.34766221108E+02  0.00000000000E+00 0.  1.
         13    1    1    2    0    0  0.13603270737E+02 -0.29508854556E+02 -0.14183288118E+02  0.35454171798E+02  0.10566000000E+00 0.  1.
        996    1    1    2    0    0 -0.13603270737E+02  0.29508854556E+02  0.79417011189E+02  0.99312049310E+02  0.50000000000E+02 0.  0.
<mgrwt>
<rscale>  0 0.59630709E+02</rscale>
<asrwt>0</asrwt>
<pdfrwt beam="1">  1       13 0.10000000E+01 0.59630709E+02</pdfrwt>
<pdfrwt beam="2">  1       22 0.34766239E+00 0.59630709E+02</pdfrwt>
<totfact> 0.16018002E-01</totfact>
</mgrwt>
</event>
<event>
 4    1  0.2486873E+000  0.5249460E+02  0.7957747E-01  0.1432333E+00
         13   -1    0    0    0    0  0.00000000000E+00  0.00000000000E+00  0.99999944177E+02  0.99999999997E+02  0.10566000000E+00 0.  1.
         22   -1    0    0    0    0 -0.00000000000E+00 -0.00000000000E+00 -0.14834677423E+02  0.14834677423E+02  0.00000000000E+00 0. -1.
         13    1    1    2    0    0  0.73713539322E+01  0.14189664029E+02  0.14949801642E+01  0.16060185359E+02  0.10566000000E+00 0. -1.
        996    1    1    2    0    0 -0.73713539322E+01 -0.14189664029E+02  0.83670286589E+02  0.98774492061E+02  0.50000000000E+02 0.  0.
<mgrwt>
<rscale>  0 0.52494604E+02</rscale>
<asrwt>0</asrwt>
<pdfrwt beam="1">  1       13 0.10000000E+01 0.52494604E+02</pdfrwt>
<pdfrwt beam="2">  1       22 0.14834701E+00 0.52494604E+02</pdfrwt>
<totfact> 0.76769171E-01</totfact>
</mgrwt>
</event>
<event>
 4    1  0.2486873E+000  0.5167067E+02  0.7957747E-01  0.1436533E+00
         13   -1    0    0    0    0  0.00000000000E+00  0.00000000000E+00  0.99999944181E+02  0.10000000000E+03  0.10566000000E+00 0.  1.
         22   -1    0    0    0    0 -0.00000000000E+00 -0.00000000000E+00 -0.14851580537E+02  0.14851580537E+02  0.00000000000E+00 0. -1.
         13    1    1    2    0    0 -0.40336295859E+01  0.12393053476E+02 -0.23422763125E+01  0.13242181258E+02  0.10566000000E+00 0. -1.
        996    1    1    2    0    0  0.40336295859E+01 -0.12393053476E+02  0.87490639957E+02  0.10160939928E+03  0.50000000000E+02 0.  0.
<mgrwt>
<rscale>  0 0.51670668E+02</rscale>
<asrwt>0</asrwt>
<pdfrwt beam="1">  1       13 0.10000000E+01 0.51670668E+02</pdfrwt>
<pdfrwt beam="2">  1       22 0.14851604E+00 0.51670668E+02</pdfrwt>
<totfact> 0.76495062E-01</totfact>
</mgrwt>
</event>
<event>
 4    1  0.2486873E+000  0.5122808E+02  0.7957747E-01  0.1438828E+00
         13   -1    0    0    0    0  0.00000000000E+00  0.00000000000E+00  0.99999944179E+02  0.99999999999E+02  0.10566000000E+00 0. -1.
         22   -1    0    0    0    0 -0.00000000000E+00 -0.00000000000E+00 -0.11620647762E+02  0.11620647762E+02  0.00000000000E+00 0. -1.
         13    1    1    2    0    0  0.89013677160E+01 -0.67142852536E+01  0.22002000271E+01  0.11365210859E+02  0.10566000000E+00 0.  1.
        996    1    1    2    0    0 -0.89013677160E+01  0.67142852536E+01  0.86179096390E+02  0.10025543690E+03  0.50000000000E+02 0.  0.
<mgrwt>
<rscale>  0 0.51228078E+02</rscale>
<asrwt>0</asrwt>
<pdfrwt beam="1">  1       13 0.10000000E+01 0.51228078E+02</pdfrwt>
<pdfrwt beam="2">  1       22 0.11620672E+00 0.51228078E+02</pdfrwt>
<totfact> 0.11268316E+00</totfact>
</mgrwt>
</event>
<event>
 4    1  0.2486873E+000  0.5557846E+02  0.7957747E-01  0.1417383E+00
         13   -1    0    0    0    0  0.00000000000E+00  0.00000000000E+00  0.99999944184E+02  0.10000000000E+03  0.10566000000E+00 0. -1.
         22   -1    0    0    0    0 -0.00000000000E+00 -0.00000000000E+00 -0.16678418428E+02  0.16678418428E+02  0.00000000000E+00 0.  1.
         13    1    1    2    0    0  0.93889735551E+01 -0.22378832999E+02  0.14703352457E+02  0.28375424724E+02  0.10566000000E+00 0.  1.
        996    1    1    2    0    0 -0.93889735551E+01  0.22378832999E+02  0.68618173299E+02  0.88302993707E+02  0.50000000000E+02 0.  0.
<mgrwt>
<rscale>  0 0.55578458E+02</rscale>
<asrwt>0</asrwt>
<pdfrwt beam="1">  1       13 0.10000000E+01 0.55578458E+02</pdfrwt>
<pdfrwt beam="2">  1       22 0.16678442E+00 0.55578458E+02</pdfrwt>
<totfact> 0.63284489E-01</totfact>
</mgrwt>
</event>
<event>
 4    1  0.2486873E+000  0.5157379E+02  0.7957747E-01  0.1437033E+00
         13   -1    0    0    0    0  0.00000000000E+00  0.00000000000E+00  0.99999944179E+02  0.99999999999E+02  0.10566000000E+00 0. -1.
         22   -1    0    0    0    0 -0.00000000000E+00 -0.00000000000E+00 -0.12418116212E+02  0.12418116212E+02  0.00000000000E+00 0. -1.
         13    1    1    2    0    0  0.12507525351E+02 -0.18486933454E+01  0.24443758669E+01  0.12877965480E+02  0.10566000000E+00 0.  1.
        996    1    1    2    0    0 -0.12507525351E+02  0.18486933454E+01  0.85137452100E+02  0.99540150731E+02  0.50000000000E+02 0.  0.
<mgrwt>
<rscale>  0 0.51573790E+02</rscale>
<asrwt>0</asrwt>
<pdfrwt beam="1">  1       13 0.10000000E+01 0.51573790E+02</pdfrwt>
<pdfrwt beam="2">  1       22 0.12418141E+00 0.51573790E+02</pdfrwt>
<totfact> 0.10187192E+00</totfact>
</mgrwt>
</event>
<event>
 4    1  0.2486873E+000  0.5405363E+02  0.7957747E-01  0.1424628E+00
         13   -1    0    0    0    0  0.00000000000E+00  0.00000000000E+00  0.99999944173E+02  0.99999999993E+02  0.10566000000E+00 0.  1.
         22   -1    0    0    0    0 -0.00000000000E+00 -0.00000000000E+00 -0.13994321041E+02  0.13994321041E+02  0.00000000000E+00 0. -1.
         13    1    1    2    0    0  0.80486383668E+01 -0.18894818216E+02  0.27759544183E+02  0.34531119186E+02  0.10566000000E+00 0. -1.
        996    1    1    2    0    0 -0.80486383668E+01  0.18894818216E+02  0.58246078949E+02  0.79463201848E+02  0.50000000000E+02 0.  0.
<mgrwt>
<rscale>  0 0.54053628E+02</rscale>
<asrwt>0</asrwt>
<pdfrwt beam="1">  1       13 0.10000000E+01 0.54053628E+02</pdfrwt>
<pdfrwt beam="2">  1       22 0.13994345E+00 0.54053628E+02</pdfrwt>
<totfact> 0.84740547E-01</totfact>
</mgrwt>
</event>
<event>
 4    1  0.2486873E+000  0.5866480E+02  0.7957747E-01  0.1403522E+00
         13   -1    0    0    0    0  0.00000000000E+00  0.00000000000E+00  0.99999944170E+02  0.99999999990E+02  0.10566000000E+00 0. -1.
         22   -1    0    0    0    0 -0.00000000000E+00 -0.00000000000E+00 -0.66180784128E+02  0.66180784128E+02  0.00000000000E+00 0.  1.
         13    1    1    2    0    0  0.27253516202E+02 -0.14099804426E+02 -0.53092997291E+02  0.61322395220E+02  0.10566000000E+00 0.  1.
        996    1    1    2    0    0 -0.27253516202E+02  0.14099804426E+02  0.86912157332E+02  0.10485838890E+03  0.50000000000E+02 0.  0.
<mgrwt>
<rscale>  0 0.58664799E+02</rscale>
<asrwt>0</asrwt>
<pdfrwt beam="1">  1       13 0.10000000E+01 0.58664799E+02</pdfrwt>
<pdfrwt beam="2">  1       22 0.66180794E+00 0.58664799E+02</pdfrwt>
<totfact> 0.87222366E-02</totfact>
</mgrwt>
</event>
<event>
 4    1  0.2486873E+000  0.5179457E+02  0.7957747E-01  0.1435896E+00
         13   -1    0    0    0    0  0.00000000000E+00  0.00000000000E+00  0.99999944186E+02  0.10000000001E+03  0.10566000000E+00 0.  1.
         22   -1    0    0    0    0 -0.00000000000E+00 -0.00000000000E+00 -0.10775604946E+02  0.10775604946E+02  0.00000000000E+00 0.  1.
         13    1    1    2    0    0  0.13505034242E+02 -0.53987622575E+00  0.14151502297E+02  0.19569200227E+02  0.10566000000E+00 0. -1.
        996    1    1    2    0    0 -0.13505034242E+02  0.53987622575E+00  0.75072836943E+02  0.91206404725E+02  0.50000000000E+02 0.  0.
<mgrwt>
<rscale>  0 0.51794569E+02</rscale>
<asrwt>0</asrwt>
<pdfrwt beam="1">  1       13 0.10000000E+01 0.51794569E+02</pdfrwt>
<pdfrwt beam="2">  1       22 0.10775630E+00 0.51794569E+02</pdfrwt>
<totfact> 0.12631735E+00</totfact>
</mgrwt>
</event>
<event>
 4    1  0.2486873E+000  0.5144228E+02  0.7957747E-01  0.1437714E+00
         13   -1    0    0    0    0  0.00000000000E+00  0.00000000000E+00  0.99999944177E+02  0.99999999997E+02  0.10566000000E+00 0. -1.
         22   -1    0    0    0    0 -0.00000000000E+00 -0.00000000000E+00 -0.12680771842E+02  0.12680771842E+02  0.00000000000E+00 0.  1.
         13    1    1    2    0    0 -0.11608482129E+02  0.33986925680E+01  0.92574347939E+00  0.12131617104E+02  0.10566000000E+00 0.  1.
        996    1    1    2    0    0  0.11608482129E+02 -0.33986925680E+01  0.86393428856E+02  0.10054915474E+03  0.50000000000E+02 0.  0.
<mgrwt>
<rscale>  0 0.51442278E+02</rscale>
<asrwt>0</asrwt>
<pdfrwt beam="1">  1       13 0.10000000E+01 0.51442278E+02</pdfrwt>
<pdfrwt beam="2">  1       22 0.12680796E+00 0.51442278E+02</pdfrwt>
<totfact> 0.98580323E-01</totfact>
</mgrwt>
</event>
<event>
 4    1  0.2486873E+000  0.5122724E+02  0.7957747E-01  0.1438832E+00
         13   -1    0    0    0    0  0.00000000000E+00  0.00000000000E+00  0.99999944178E+02  0.99999999999E+02  0.10566000000E+00 0.  1.
         22   -1    0    0    0    0 -0.00000000000E+00 -0.00000000000E+00 -0.18268557544E+02  0.18268557544E+02  0.00000000000E+00 0. -1.
         13    1    1    2    0    0  0.96071350891E+01 -0.56508916129E+01 -0.88316064350E+01  0.14221042750E+02  0.10566000000E+00 0. -1.
        996    1    1    2    0    0 -0.96071350891E+01  0.56508916129E+01  0.90562993070E+02  0.10404751479E+03  0.50000000000E+02 0.  0.
<mgrwt>
<rscale>  0 0.51227235E+02</rscale>
<asrwt>0</asrwt>
<pdfrwt beam="1">  1       13 0.10000000E+01 0.51227235E+02</pdfrwt>
<pdfrwt beam="2">  1       22 0.18268580E+00 0.51227235E+02</pdfrwt>
<totfact> 0.53418573E-01</totfact>
</mgrwt>
</event>
<event>
 4    1  0.2486873E+000  0.5161406E+02  0.7957747E-01  0.1436825E+00
         13   -1    0    0    0    0  0.00000000000E+00  0.00000000000E+00  0.99999944177E+02  0.99999999997E+02  0.10566000000E+00 0. -1.
         22   -1    0    0    0    0 -0.00000000000E+00 -0.00000000000E+00 -0.13105465082E+02  0.13105465082E+02  0.00000000000E+00 0.  1.
         13    1    1    2    0    0 -0.11977265686E+02 -0.45338753547E+01  0.93575811305E+00  0.12841250964E+02  0.10566000000E+00 0.  1.
        996    1    1    2    0    0  0.11977265686E+02  0.45338753547E+01  0.85958720982E+02  0.10026421411E+03  0.50000000000E+02 0.  0.
<mgrwt>
<rscale>  0 0.51614057E+02</rscale>
<asrwt>0</asrwt>
<pdfrwt beam="1">  1       13 0.10000000E+01 0.51614057E+02</pdfrwt>
<pdfrwt beam="2">  1       22 0.13105489E+00 0.51614057E+02</pdfrwt>
<totfact> 0.93645601E-01</totfact>
</mgrwt>
</event>
<event>
 4    1  0.2486873E+000  0.5131419E+02  0.7957747E-01  0.1438379E+00
         13   -1    0    0    0    0  0.00000000000E+00  0.00000000000E+00  0.99999944178E+02  0.99999999998E+02  0.10566000000E+00 0. -1.
         22   -1    0    0    0    0 -0.00000000000E+00 -0.00000000000E+00 -0.13782194453E+02  0.13782194453E+02  0.00000000000E+00 0. -1.
         13    1    1    2    0    0  0.11268475525E+02  0.24834095569E+01 -0.20138517474E+01  0.11713779347E+02  0.10566000000E+00 0.  1.
        996    1    1    2    0    0 -0.11268475525E+02 -0.24834095569E+01  0.88231601472E+02  0.10206841511E+03  0.50000000000E+02 0.  0.
<mgrwt>
<rscale>  0 0.51314188E+02</rscale>
<asrwt>0</asrwt>
<pdfrwt beam="1">  1       13 0.10000000E+01 0.51314188E+02</pdfrwt>
<pdfrwt beam="2">  1       22 0.13782219E+00 0.51314188E+02</pdfrwt>
<totfact> 0.86365020E-01</totfact>
</mgrwt>
</event>
<event>
 4    1  0.2486873E+000  0.5119670E+02  0.7957747E-01  0.1438992E+00
         13   -1    0    0    0    0  0.00000000000E+00  0.00000000000E+00  0.99999944179E+02  0.99999999999E+02  0.10566000000E+00 0.  1.
         22   -1    0    0    0    0 -0.00000000000E+00 -0.00000000000E+00 -0.10698218532E+02  0.10698218532E+02  0.00000000000E+00 0.  1.
         13    1    1    2    0    0  0.68096237066E+01 -0.86447331365E+01  0.50445002496E+01  0.12106218767E+02  0.10566000000E+00 0. -1.
        996    1    1    2    0    0 -0.68096237066E+01  0.86447331365E+01  0.84257225397E+02  0.98591999765E+02  0.50000000000E+02 0.  0.
<mgrwt>
<rscale>  0 0.51196703E+02</rscale>
<asrwt>0</asrwt>
<pdfrwt beam="1">  1       13 0.10000000E+01 0.51196703E+02</pdfrwt>
<pdfrwt beam="2">  1       22 0.10698243E+00 0.51196703E+02</pdfrwt>
<totfact> 0.12748958E+00</totfact>
</mgrwt>
</event>
<event>
 4    1  0.2486873E+000  0.7013599E+02  0.7957747E-01  0.1359631E+00
         13   -1    0    0    0    0  0.00000000000E+00  0.00000000000E+00  0.99999944179E+02  0.99999999999E+02  0.10566000000E+00 0.  1.
         22   -1    0    0    0    0 -0.00000000000E+00 -0.00000000000E+00 -0.63830251464E+02  0.63830251464E+02  0.00000000000E+00 0. -1.
         13    1    1    2    0    0 -0.33981385076E+02 -0.35557313476E+02 -0.37698509716E+02  0.61969717380E+02  0.10566000000E+00 0. -1.
        996    1    1    2    0    0  0.33981385076E+02  0.35557313476E+02  0.73868202431E+02  0.10186053408E+03  0.50000000000E+02 0.  0.
<mgrwt>
<rscale>  0 0.70135990E+02</rscale>
<asrwt>0</asrwt>
<pdfrwt beam="1">  1       13 0.10000000E+01 0.70135990E+02</pdfrwt>
<pdfrwt beam="2">  1       22 0.63830262E+00 0.70135990E+02</pdfrwt>
<totfact> 0.82720136E-02</totfact>
</mgrwt>
</event>
<event>
 4    1  0.2486873E+000  0.5561849E+02  0.7957747E-01  0.1417196E+00
         13   -1    0    0    0    0  0.00000000000E+00  0.00000000000E+00  0.99999944178E+02  0.99999999998E+02  0.10566000000E+00 0.  1.
         22   -1    0    0    0    0 -0.00000000000E+00 -0.00000000000E+00 -0.16634258334E+02  0.16634258334E+02  0.00000000000E+00 0.  1.
         13    1    1    2    0    0 -0.22629071467E+02  0.90189427273E+01  0.15433137012E+02  0.28837633146E+02  0.10566000000E+00 0. -1.
        996    1    1    2    0    0  0.22629071467E+02 -0.90189427273E+01  0.67932548831E+02  0.87796625186E+02  0.50000000000E+02 0.  0.
<mgrwt>
<rscale>  0 0.55618488E+02</rscale>
<asrwt>0</asrwt>
<pdfrwt beam="1">  1       13 0.10000000E+01 0.55618488E+02</pdfrwt>
<pdfrwt beam="2">  1       22 0.16634282E+00 0.55618488E+02</pdfrwt>
<totfact> 0.63581844E-01</totfact>
</mgrwt>
</event>
<event>
 4    1  0.2486873E+000  0.6025691E+02  0.7957747E-01  0.1396757E+00
         13   -1    0    0    0    0  0.00000000000E+00  0.00000000000E+00  0.99999944175E+02  0.99999999996E+02  0.10566000000E+00 0.  1.
         22   -1    0    0    0    0 -0.00000000000E+00 -0.00000000000E+00 -0.70363460511E+02  0.70363460511E+02  0.00000000000E+00 0. -1.
         13    1    1    2    0    0  0.32205175088E+02  0.96810314983E+01 -0.56197138658E+02  0.65490649949E+02  0.10566000000E+00 0. -1.
        996    1    1    2    0    0 -0.32205175088E+02 -0.96810314983E+01  0.85833622322E+02  0.10487281056E+03  0.50000000000E+02 0.  0.
<mgrwt>
<rscale>  0 0.60256914E+02</rscale>
<asrwt>0</asrwt>
<pdfrwt beam="1">  1       13 0.10000000E+01 0.60256914E+02</pdfrwt>
<pdfrwt beam="2">  1       22 0.70363469E+00 0.60256914E+02</pdfrwt>
<totfact> 0.72762127E-02</totfact>
</mgrwt>
</event>
<event>
 4    1  0.2486873E+000  0.5815075E+02  0.7957747E-01  0.1405760E+00
         13   -1    0    0    0    0  0.00000000000E+00  0.00000000000E+00  0.99999944172E+02  0.99999999992E+02  0.10566000000E+00 0. -1.
         22   -1    0    0    0    0 -0.00000000000E+00 -0.00000000000E+00 -0.98263451169E+02  0.98263451169E+02  0.00000000000E+00 0.  1.
         13    1    1    2    0    0  0.29659594608E+02  0.13483396498E+01 -0.87136826206E+02  0.92056217701E+02  0.10566000000E+00 0.  1.
        996    1    1    2    0    0 -0.29659594608E+02 -0.13483396498E+01  0.88873319209E+02  0.10620723346E+03  0.50000000000E+02 0.  0.
<mgrwt>
<rscale>  0 0.58150749E+02</rscale>
<asrwt>0</asrwt>
<pdfrwt beam="1">  1       13 0.10000000E+01 0.58150749E+02</pdfrwt>
<pdfrwt beam="2">  1       22 0.98263452E+00 0.58150749E+02</pdfrwt>
<totfact> 0.13157861E-03</totfact>
</mgrwt>
</event>
<event>
 4    1  0.2486873E+000  0.6044752E+02  0.7957747E-01  0.1395963E+00
         13   -1    0    0    0    0  0.00000000000E+00  0.00000000000E+00  0.99999944175E+02  0.99999999996E+02  0.10566000000E+00 0.  1.
         22   -1    0    0    0    0 -0.00000000000E+00 -0.00000000000E+00 -0.23675941332E+02  0.23675941332E+02  0.00000000000E+00 0. -1.
         13    1    1    2    0    0 -0.22999472382E+02  0.24998529362E+02  0.13671885435E+02  0.36617397716E+02  0.10566000000E+00 0. -1.
        996    1    1    2    0    0  0.22999472382E+02 -0.24998529362E+02  0.62652117408E+02  0.87058543612E+02  0.50000000000E+02 0.  0.
<mgrwt>
<rscale>  0 0.60447516E+02</rscale>
<asrwt>0</asrwt>
<pdfrwt beam="1">  1       13 0.10000000E+01 0.60447516E+02</pdfrwt>
<pdfrwt beam="2">  1       22 0.23675963E+00 0.60447516E+02</pdfrwt>
<totfact> 0.33219529E-01</totfact>
</mgrwt>
</event>
<event>
 4    1  0.2486873E+000  0.5648362E+02  0.7957747E-01  0.1413210E+00
         13   -1    0    0    0    0  0.00000000000E+00  0.00000000000E+00  0.99999944175E+02  0.99999999995E+02  0.10566000000E+00 0. -1.
         22   -1    0    0    0    0 -0.00000000000E+00 -0.00000000000E+00 -0.21640432280E+02  0.21640432280E+02  0.00000000000E+00 0. -1.
         13    1    1    2    0    0 -0.12585200840E+02 -0.23065380055E+02  0.15807198553E+01  0.26323162359E+02  0.10566000000E+00 0.  1.
        996    1    1    2    0    0  0.12585200840E+02  0.23065380055E+02  0.76778792039E+02  0.95317269916E+02  0.50000000000E+02 0.  0.
<mgrwt>
<rscale>  0 0.56483617E+02</rscale>
<asrwt>0</asrwt>
<pdfrwt beam="1">  1       13 0.10000000E+01 0.56483617E+02</pdfrwt>
<pdfrwt beam="2">  1       22 0.21640454E+00 0.56483617E+02</pdfrwt>
<totfact> 0.39324843E-01</totfact>
</mgrwt>
</event>
<event>
 4    1  0.2486873E+000  0.5103702E+02  0.7957747E-01  0.1439827E+00
         13   -1    0    0    0    0  0.00000000000E+00  0.00000000000E+00  0.99999944177E+02  0.99999999997E+02  0.10566000000E+00 0. -1.
         22   -1    0    0    0    0 -0.00000000000E+00 -0.00000000000E+00 -0.13543081153E+02  0.13543081153E+02  0.00000000000E+00 0.  1.
         13    1    1    2    0    0  0.85916257473E+00 -0.10199938227E+02 -0.28988492747E+01  0.10639144294E+02  0.10566000000E+00 0.  1.
        996    1    1    2    0    0 -0.85916257473E+00  0.10199938227E+02  0.89355712298E+02  0.10290393686E+03  0.50000000000E+02 0.  0.
<mgrwt>
<rscale>  0 0.51037015E+02</rscale>
<asrwt>0</asrwt>
<pdfrwt beam="1">  1       13 0.10000000E+01 0.51037015E+02</pdfrwt>
<pdfrwt beam="2">  1       22 0.13543105E+00 0.51037015E+02</pdfrwt>
<totfact> 0.88771406E-01</totfact>
</mgrwt>
</event>
<event>
 4    1  0.2486873E+000  0.5148907E+02  0.7957747E-01  0.1437471E+00
         13   -1    0    0    0    0  0.00000000000E+00  0.00000000000E+00  0.99999944185E+02  0.10000000001E+03  0.10566000000E+00 0. -1.
         22   -1    0    0    0    0 -0.00000000000E+00 -0.00000000000E+00 -0.27757040457E+02  0.27757040457E+02  0.00000000000E+00 0.  1.
         13    1    1    2    0    0  0.83977078108E+01  0.89779207696E+01 -0.19209305529E+02  0.22806427620E+02  0.10566000000E+00 0.  1.
        996    1    1    2    0    0 -0.83977078108E+01 -0.89779207696E+01  0.91452209257E+02  0.10495061284E+03  0.50000000000E+02 0.  0.
<mgrwt>
<rscale>  0 0.51489072E+02</rscale>
<asrwt>0</asrwt>
<pdfrwt beam="1">  1       13 0.10000000E+01 0.51489072E+02</pdfrwt>
<pdfrwt beam="2">  1       22 0.27757061E+00 0.51489072E+02</pdfrwt>
<totfact> 0.23995341E-01</totfact>
</mgrwt>
</event>
<event>
 4    1  0.2486873E+000  0.5224823E+02  0.7957747E-01  0.1433579E+00
         13   -1    0    0    0    0  0.00000000000E+00  0.00000000000E+00  0.99999944174E+02  0.99999999995E+02  0.10566000000E+00 0. -1.
         22   -1    0    0    0    0 -0.00000000000E+00 -0.00000000000E+00 -0.21325956688E+02  0.21325956688E+02  0.00000000000E+00 0.  1.
         13    1    1    2    0    0  0.95816420472E+00  0.15131415443E+02 -0.10170269672E+02  0.18257145483E+02  0.10566000000E+00 0.  1.
        996    1    1    2    0    0 -0.95816420472E+00 -0.15131415443E+02  0.88844257159E+02  0.10306881120E+03  0.50000000000E+02 0.  0.
<mgrwt>
<rscale>  0 0.52248233E+02</rscale>
<asrwt>0</asrwt>
<pdfrwt beam="1">  1       13 0.10000000E+01 0.52248233E+02</pdfrwt>
<pdfrwt beam="2">  1       22 0.21325979E+00 0.52248233E+02</pdfrwt>
<totfact> 0.40159395E-01</totfact>
</mgrwt>
</event>
<event>
 4    1  0.2486873E+000  0.5157255E+02  0.7957747E-01  0.1437040E+00
         13   -1    0    0    0    0  0.00000000000E+00  0.00000000000E+00  0.99999944182E+02  0.10000000000E+03  0.10566000000E+00 0.  1.
         22   -1    0    0    0    0 -0.00000000000E+00 -0.00000000000E+00 -0.10670944903E+02  0.10670944903E+02  0.00000000000E+00 0.  1.
         13    1    1    2    0    0  0.12362465993E+02 -0.26263198396E+01  0.10306233883E+02  0.16308210883E+02  0.10566000000E+00 0. -1.
        996    1    1    2    0    0 -0.12362465993E+02  0.26263198396E+01  0.79022765397E+02  0.94362734023E+02  0.50000000000E+02 0.  0.
<mgrwt>
<rscale>  0 0.51572552E+02</rscale>
<asrwt>0</asrwt>
<pdfrwt beam="1">  1       13 0.10000000E+01 0.51572552E+02</pdfrwt>
<pdfrwt beam="2">  1       22 0.10670970E+00 0.51572552E+02</pdfrwt>
<totfact> 0.12808427E+00</totfact>
</mgrwt>
</event>
<event>
 4    1  0.2486873E+000  0.5115414E+02  0.7957747E-01  0.1439214E+00
         13   -1    0    0    0    0  0.00000000000E+00  0.00000000000E+00  0.99999944182E+02  0.10000000000E+03  0.10566000000E+00 0.  1.
         22   -1    0    0    0    0 -0.00000000000E+00 -0.00000000000E+00 -0.97130311996E+01  0.97130311996E+01  0.00000000000E+00 0. -1.
         13    1    1    2    0    0 -0.12895211215E+01 -0.10727661326E+02  0.11534014599E+02  0.15804753686E+02  0.10566000000E+00 0. -1.
        996    1    1    2    0    0  0.12895211215E+01  0.10727661326E+02  0.78752898383E+02  0.93908277516E+02  0.50000000000E+02 0.  0.
<mgrwt>
<rscale>  0 0.51154136E+02</rscale>
<asrwt>0</asrwt>
<pdfrwt beam="1">  1       13 0.10000000E+01 0.51154136E+02</pdfrwt>
<pdfrwt beam="2">  1       22 0.97130564E-01 0.51154136E+02</pdfrwt>
<totfact> 0.14672510E+00</totfact>
</mgrwt>
</event>
<event>
 4    1  0.2486873E+000  0.5125194E+02  0.7957747E-01  0.1438704E+00
         13   -1    0    0    0    0  0.00000000000E+00  0.00000000000E+00  0.99999944167E+02  0.99999999988E+02  0.10566000000E+00 0.  1.
         22   -1    0    0    0    0 -0.00000000000E+00 -0.00000000000E+00 -0.17058751718E+02  0.17058751718E+02  0.00000000000E+00 0. -1.
         13    1    1    2    0    0 -0.77309142188E+01 -0.81850313318E+01 -0.72009506990E+01  0.13365127293E+02  0.10566000000E+00 0. -1.
        996    1    1    2    0    0  0.77309142188E+01  0.81850313318E+01  0.90142143148E+02  0.10369362441E+03  0.50000000000E+02 0.  0.
<mgrwt>
<rscale>  0 0.51251944E+02</rscale>
<asrwt>0</asrwt>
<pdfrwt beam="1">  1       13 0.10000000E+01 0.51251944E+02</pdfrwt>
<pdfrwt beam="2">  1       22 0.17058775E+00 0.51251944E+02</pdfrwt>
<totfact> 0.60343730E-01</totfact>
</mgrwt>
</event>
<event>
 4    1  0.2486873E+000  0.6499931E+02  0.7957747E-01  0.1377974E+00
         13   -1    0    0    0    0  0.00000000000E+00  0.00000000000E+00  0.99999944174E+02  0.99999999994E+02  0.10566000000E+00 0.  1.
         22   -1    0    0    0    0 -0.00000000000E+00 -0.00000000000E+00 -0.68769542711E+02  0.68769542711E+02  0.00000000000E+00 0. -1.
         13    1    1    2    0    0 -0.14799991569E+02  0.38805554842E+02 -0.49829009560E+02  0.64867959694E+02  0.10566000000E+00 0. -1.
        996    1    1    2    0    0  0.14799991569E+02 -0.38805554842E+02  0.81059411022E+02  0.10390158301E+03  0.50000000000E+02 0.  0.
<mgrwt>
<rscale>  0 0.64999314E+02</rscale>
<asrwt>0</asrwt>
<pdfrwt beam="1">  1       13 0.10000000E+01 0.64999314E+02</pdfrwt>
<pdfrwt beam="2">  1       22 0.68769551E+00 0.64999314E+02</pdfrwt>
<totfact> 0.80453300E-02</totfact>
</mgrwt>
</event>
<event>
 4    1  0.2486873E+000  0.5356476E+02  0.7957747E-01  0.1427011E+00
         13   -1    0    0    0    0  0.00000000000E+00  0.00000000000E+00  0.99999944178E+02  0.99999999998E+02  0.10566000000E+00 0.  1.
         22   -1    0    0    0    0 -0.00000000000E+00 -0.00000000000E+00 -0.22045279867E+02  0.22045279867E+02  0.00000000000E+00 0. -1.
         13    1    1    2    0    0 -0.18035120527E+02  0.66270642603E+01 -0.79620091175E+01  0.20798757327E+02  0.10566000000E+00 0. -1.
        996    1    1    2    0    0  0.18035120527E+02 -0.66270642603E+01  0.85916673428E+02  0.10124652254E+03  0.50000000000E+02 0.  0.
<mgrwt>
<rscale>  0 0.53564760E+02</rscale>
<asrwt>0</asrwt>
<pdfrwt beam="1">  1       13 0.10000000E+01 0.53564760E+02</pdfrwt>
<pdfrwt beam="2">  1       22 0.22045302E+00 0.53564760E+02</pdfrwt>
<totfact> 0.37770787E-01</totfact>
</mgrwt>
</event>
<event>
 4    1  0.2486873E+000  0.5439006E+02  0.7957747E-01  0.1423006E+00
         13   -1    0    0    0    0  0.00000000000E+00  0.00000000000E+00  0.99999944176E+02  0.99999999996E+02  0.10566000000E+00 0.  1.
         22   -1    0    0    0    0 -0.00000000000E+00 -0.00000000000E+00 -0.15797432406E+02  0.15797432406E+02  0.00000000000E+00 0.  1.
         13    1    1    2    0    0 -0.21125074523E+02 -0.34654656909E+01  0.95717687114E+01  0.23450120391E+02  0.10566000000E+00 0. -1.
        996    1    1    2    0    0  0.21125074523E+02  0.34654656909E+01  0.74630743059E+02  0.92347312011E+02  0.50000000000E+02 0.  0.
<mgrwt>
<rscale>  0 0.54390056E+02</rscale>
<asrwt>0</asrwt>
<pdfrwt beam="1">  1       13 0.10000000E+01 0.54390056E+02</pdfrwt>
<pdfrwt beam="2">  1       22 0.15797456E+00 0.54390056E+02</pdfrwt>
<totfact> 0.69330470E-01</totfact>
</mgrwt>
</event>
<event>
 4    1  0.2486873E+000  0.5247230E+02  0.7957747E-01  0.1432445E+00
         13   -1    0    0    0    0  0.00000000000E+00  0.00000000000E+00  0.99999944179E+02  0.99999999999E+02  0.10566000000E+00 0.  1.
         22   -1    0    0    0    0 -0.00000000000E+00 -0.00000000000E+00 -0.24690895221E+02  0.24690895221E+02  0.00000000000E+00 0. -1.
         13    1    1    2    0    0 -0.14968851216E+02 -0.54106831782E+01 -0.13940788584E+02  0.21158892919E+02  0.10566000000E+00 0. -1.
        996    1    1    2    0    0  0.14968851216E+02  0.54106831782E+01  0.89249837542E+02  0.10353200230E+03  0.50000000000E+02 0.  0.
<mgrwt>
<rscale>  0 0.52472297E+02</rscale>
<asrwt>0</asrwt>
<pdfrwt beam="1">  1       13 0.10000000E+01 0.52472297E+02</pdfrwt>
<pdfrwt beam="2">  1       22 0.24690916E+00 0.52472297E+02</pdfrwt>
<totfact> 0.30231932E-01</totfact>
</mgrwt>
</event>
<event>
 4    1  0.2486873E+000  0.5137042E+02  0.7957747E-01  0.1438087E+00
         13   -1    0    0    0    0  0.00000000000E+00  0.00000000000E+00  0.99999944182E+02  0.10000000000E+03  0.10566000000E+00 0.  1.
         22   -1    0    0    0    0 -0.00000000000E+00 -0.00000000000E+00 -0.41649083108E+02  0.41649083108E+02  0.00000000000E+00 0. -1.
         13    1    1    2    0    0 -0.11775817368E+02  0.50035373754E+00 -0.33992881565E+02  0.35978429506E+02  0.10566000000E+00 0. -1.
        996    1    1    2    0    0  0.11775817368E+02 -0.50035373754E+00  0.92343742639E+02  0.10567065360E+03  0.50000000000E+02 0.  0.
<mgrwt>
<rscale>  0 0.51370422E+02</rscale>
<asrwt>0</asrwt>
<pdfrwt beam="1">  1       13 0.10000000E+01 0.51370422E+02</pdfrwt>
<pdfrwt beam="2">  1       22 0.41649099E+00 0.51370422E+02</pdfrwt>
<totfact> 0.11423450E-01</totfact>
</mgrwt>
</event>
<event>
 4    1  0.2486873E+000  0.5215885E+02  0.7957747E-01  0.1434033E+00
         13   -1    0    0    0    0  0.00000000000E+00  0.00000000000E+00  0.99999944172E+02  0.99999999992E+02  0.10566000000E+00 0. -1.
         22   -1    0    0    0    0 -0.00000000000E+00 -0.00000000000E+00 -0.11264965400E+02  0.11264965400E+02  0.00000000000E+00 0. -1.
         13    1    1    2    0    0  0.66410316887E+01  0.13283169679E+02  0.22477731503E+02  0.26940777200E+02  0.10566000000E+00 0.  1.
        996    1    1    2    0    0 -0.66410316887E+01 -0.13283169679E+02  0.66257247269E+02  0.84324188192E+02  0.50000000000E+02 0.  0.
<mgrwt>
<rscale>  0 0.52158853E+02</rscale>
<asrwt>0</asrwt>
<pdfrwt beam="1">  1       13 0.10000000E+01 0.52158853E+02</pdfrwt>
<pdfrwt beam="2">  1       22 0.11264990E+00 0.52158853E+02</pdfrwt>
<totfact> 0.11833520E+00</totfact>
</mgrwt>
</event>
<event>
 4    1  0.2486873E+000  0.5154104E+02  0.7957747E-01  0.1437203E+00
         13   -1    0    0    0    0  0.00000000000E+00  0.00000000000E+00  0.99999944176E+02  0.99999999996E+02  0.10566000000E+00 0.  1.
         22   -1    0    0    0    0 -0.00000000000E+00 -0.00000000000E+00 -0.10339746425E+02  0.10339746425E+02  0.00000000000E+00 0.  1.
         13    1    1    2    0    0 -0.50617077406E+01 -0.11439312973E+02  0.13790356947E+02  0.18618911765E+02  0.10566000000E+00 0. -1.
        996    1    1    2    0    0  0.50617077406E+01  0.11439312973E+02  0.75869840803E+02  0.91720834657E+02  0.50000000000E+02 0.  0.
<mgrwt>
<rscale>  0 0.51541040E+02</rscale>
<asrwt>0</asrwt>
<pdfrwt beam="1">  1       13 0.10000000E+01 0.51541040E+02</pdfrwt>
<pdfrwt beam="2">  1       22 0.10339771E+00 0.51541040E+02</pdfrwt>
<totfact> 0.13414151E+00</totfact>
</mgrwt>
</event>
<event>
 4    1  0.2486873E+000  0.5114521E+02  0.7957747E-01  0.1439261E+00
         13   -1    0    0    0    0  0.00000000000E+00  0.00000000000E+00  0.99999944185E+02  0.10000000001E+03  0.10566000000E+00 0.  1.
         22   -1    0    0    0    0 -0.00000000000E+00 -0.00000000000E+00 -0.12286804198E+02  0.12286804198E+02  0.00000000000E+00 0. -1.
         13    1    1    2    0    0 -0.24957823386E+01 -0.10469192108E+02  0.13480945894E-01  0.10763097075E+02  0.10566000000E+00 0. -1.
        996    1    1    2    0    0  0.24957823386E+01  0.10469192108E+02  0.87699659041E+02  0.10152370713E+03  0.50000000000E+02 0.  0.
<mgrwt>
<rscale>  0 0.51145214E+02</rscale>
<asrwt>0</asrwt>
<pdfrwt beam="1">  1       13 0.10000000E+01 0.51145214E+02</pdfrwt>
<pdfrwt beam="2">  1       22 0.12286829E+00 0.51145214E+02</pdfrwt>
<totfact> 0.10346136E+00</totfact>
</mgrwt>
</event>
<event>
 4    1  0.2486873E+000  0.5612441E+02  0.7957747E-01  0.1414855E+00
         13   -1    0    0    0    0  0.00000000000E+00  0.00000000000E+00  0.99999944176E+02  0.99999999996E+02  0.10566000000E+00 0. -1.
         22   -1    0    0    0    0 -0.00000000000E+00 -0.00000000000E+00 -0.37424567327E+02  0.37424567327E+02  0.00000000000E+00 0. -1.
         13    1    1    2    0    0 -0.96616160241E+00  0.25475790759E+02 -0.23496736361E+02  0.34670696080E+02  0.10566000000E+00 0.  1.
        996    1    1    2    0    0  0.96616160241E+00 -0.25475790759E+02  0.86072113210E+02  0.10275387124E+03  0.50000000000E+02 0.  0.
<mgrwt>
<rscale>  0 0.56124410E+02</rscale>
<asrwt>0</asrwt>
<pdfrwt beam="1">  1       13 0.10000000E+01 0.56124410E+02</pdfrwt>
<pdfrwt beam="2">  1       22 0.37424585E+00 0.56124410E+02</pdfrwt>
<totfact> 0.14021423E-01</totfact>
</mgrwt>
</event>
<event>
 4    1  0.2486873E+000  0.5327895E+02  0.7957747E-01  0.1428418E+00
         13   -1    0    0    0    0  0.00000000000E+00  0.00000000000E+00  0.99999944188E+02  0.10000000001E+03  0.10566000000E+00 0. -1.
         22   -1    0    0    0    0 -0.00000000000E+00 -0.00000000000E+00 -0.18047204199E+02  0.18047204199E+02  0.00000000000E+00 0.  1.
         13    1    1    2    0    0 -0.17564217993E+02  0.54904099585E+01 -0.21091254685E+01  0.18523118784E+02  0.10566000000E+00 0.  1.
        996    1    1    2    0    0  0.17564217993E+02 -0.54904099585E+01  0.84061865457E+02  0.99524085423E+02  0.50000000000E+02 0.  0.
<mgrwt>
<rscale>  0 0.53278949E+02</rscale>
<asrwt>0</asrwt>
<pdfrwt beam="1">  1       13 0.10000000E+01 0.53278949E+02</pdfrwt>
<pdfrwt beam="2">  1       22 0.18047227E+00 0.53278949E+02</pdfrwt>
<totfact> 0.54813273E-01</totfact>
</mgrwt>
</event>
<event>
 4    1  0.2486873E+000  0.5154763E+02  0.7957747E-01  0.1437168E+00
         13   -1    0    0    0    0  0.00000000000E+00  0.00000000000E+00  0.99999944179E+02  0.99999999999E+02  0.10566000000E+00 0. -1.
         22   -1    0    0    0    0 -0.00000000000E+00 -0.00000000000E+00 -0.12719633976E+02  0.12719633976E+02  0.00000000000E+00 0.  1.
         13    1    1    2    0    0  0.36686514342E+01 -0.11987451270E+02  0.14777666481E+01  0.12623507817E+02  0.10566000000E+00 0.  1.
        996    1    1    2    0    0 -0.36686514342E+01  0.11987451270E+02  0.85802543555E+02  0.10009612616E+03  0.50000000000E+02 0.  0.
<mgrwt>
<rscale>  0 0.51547628E+02</rscale>
<asrwt>0</asrwt>
<pdfrwt beam="1">  1       13 0.10000000E+01 0.51547628E+02</pdfrwt>
<pdfrwt beam="2">  1       22 0.12719658E+00 0.51547628E+02</pdfrwt>
<totfact> 0.98133115E-01</totfact>
</mgrwt>
</event>
<event>
 4    1  0.2486873E+000  0.5570399E+02  0.7957747E-01  0.1416799E+00
         13   -1    0    0    0    0  0.00000000000E+00  0.00000000000E+00  0.99999944176E+02  0.99999999997E+02  0.10566000000E+00 0. -1.
         22   -1    0    0    0    0 -0.00000000000E+00 -0.00000000000E+00 -0.68676421189E+02  0.68676421189E+02  0.00000000000E+00 0.  1.
         13    1    1    2    0    0 -0.19408333198E+02  0.15041651573E+02 -0.58239221023E+02  0.63204056112E+02  0.10566000000E+00 0.  1.
        996    1    1    2    0    0  0.19408333198E+02 -0.15041651573E+02  0.89562744011E+02  0.10547236507E+03  0.50000000000E+02 0.  0.
<mgrwt>
<rscale>  0 0.55703992E+02</rscale>
<asrwt>0</asrwt>
<pdfrwt beam="1">  1       13 0.10000000E+01 0.55703992E+02</pdfrwt>
<pdfrwt beam="2">  1       22 0.68676430E+00 0.55703992E+02</pdfrwt>
<totfact> 0.80857339E-02</totfact>
</mgrwt>
</event>
<event>
 4    1  0.2486873E+000  0.5756268E+02  0.7957747E-01  0.1408354E+00
         13   -1    0    0    0    0  0.00000000000E+00  0.00000000000E+00  0.99999944190E+02  0.10000000001E+03  0.10566000000E+00 0.  1.
         22   -1    0    0    0    0 -0.00000000000E+00 -0.00000000000E+00 -0.18793866120E+02  0.18793866120E+02  0.00000000000E+00 0.  1.
         13    1    1    2    0    0 -0.20436258096E+02 -0.19895275047E+02  0.20421066274E+02  0.35078394005E+02  0.10566000000E+00 0. -1.
        996    1    1    2    0    0  0.20436258096E+02  0.19895275047E+02  0.60785011796E+02  0.83715472126E+02  0.50000000000E+02 0.  0.
<mgrwt>
<rscale>  0 0.57562684E+02</rscale>
<asrwt>0</asrwt>
<pdfrwt beam="1">  1       13 0.10000000E+01 0.57562684E+02</pdfrwt>
<pdfrwt beam="2">  1       22 0.18793889E+00 0.57562684E+02</pdfrwt>
<totfact> 0.51313461E-01</totfact>
</mgrwt>
</event>
<event>
 4    1  0.2486873E+000  0.5139555E+02  0.7957747E-01  0.1437956E+00
         13   -1    0    0    0    0  0.00000000000E+00  0.00000000000E+00  0.99999944185E+02  0.10000000001E+03  0.10566000000E+00 0.  1.
         22   -1    0    0    0    0 -0.00000000000E+00 -0.00000000000E+00 -0.66887348587E+02  0.66887348587E+02  0.00000000000E+00 0. -1.
         13    1    1    2    0    0  0.11879568664E+02 -0.61527711111E+00 -0.59657361307E+02  0.60831855469E+02  0.10566000000E+00 0. -1.
        996    1    1    2    0    0 -0.11879568664E+02  0.61527711111E+00  0.92769956905E+02  0.10605549312E+03  0.50000000000E+02 0.  0.
<mgrwt>
<rscale>  0 0.51395552E+02</rscale>
<asrwt>0</asrwt>
<pdfrwt beam="1">  1       13 0.10000000E+01 0.51395552E+02</pdfrwt>
<pdfrwt beam="2">  1       22 0.66887358E+00 0.51395552E+02</pdfrwt>
<totfact> 0.86483211E-02</totfact>
</mgrwt>
</event>
<event>
 4    1  0.2486873E+000  0.5121821E+02  0.7957747E-01  0.1438879E+00
         13   -1    0    0    0    0  0.00000000000E+00  0.00000000000E+00  0.99999944174E+02  0.99999999995E+02  0.10566000000E+00 0.  1.
         22   -1    0    0    0    0 -0.00000000000E+00 -0.00000000000E+00 -0.26111906548E+02  0.26111906548E+02  0.00000000000E+00 0. -1.
         13    1    1    2    0    0  0.97233204904E+01 -0.53630046043E+01 -0.17862836624E+02  0.21033232658E+02  0.10566000000E+00 0. -1.
        996    1    1    2    0    0 -0.97233204904E+01  0.53630046043E+01  0.91750874250E+02  0.10507867389E+03  0.50000000000E+02 0.  0.
<mgrwt>
<rscale>  0 0.51218208E+02</rscale>
<asrwt>0</asrwt>
<pdfrwt beam="1">  1       13 0.10000000E+01 0.51218208E+02</pdfrwt>
<pdfrwt beam="2">  1       22 0.26111927E+00 0.51218208E+02</pdfrwt>
<totfact> 0.27028066E-01</totfact>
</mgrwt>
</event>
<event>
 4    1  0.2486873E+000  0.5141537E+02  0.7957747E-01  0.1437854E+00
         13   -1    0    0    0    0  0.00000000000E+00  0.00000000000E+00  0.99999944180E+02  0.10000000000E+03  0.10566000000E+00 0.  1.
         22   -1    0    0    0    0 -0.00000000000E+00 -0.00000000000E+00 -0.43604099323E+02  0.43604099323E+02  0.00000000000E+00 0. -1.
         13    1    1    2    0    0  0.11042971849E+02  0.46467782057E+01 -0.35958656996E+02  0.37902189277E+02  0.10566000000E+00 0. -1.
        996    1    1    2    0    0 -0.11042971849E+02 -0.46467782057E+01  0.92354501853E+02  0.10570191005E+03  0.50000000000E+02 0.  0.
<mgrwt>
<rscale>  0 0.51415365E+02</rscale>
<asrwt>0</asrwt>
<pdfrwt beam="1">  1       13 0.10000000E+01 0.51415365E+02</pdfrwt>
<pdfrwt beam="2">  1       22 0.43604115E+00 0.51415365E+02</pdfrwt>
<totfact> 0.10373446E-01</totfact>
</mgrwt>
</event>
<event>
 4    1  0.2486873E+000  0.5099253E+02  0.7957747E-01  0.1440061E+00
         13   -1    0    0    0    0  0.00000000000E+00  0.00000000000E+00  0.99999944179E+02  0.99999999999E+02  0.10566000000E+00 0. -1.
         22   -1    0    0    0    0 -0.00000000000E+00 -0.00000000000E+00 -0.10560280538E+02  0.10560280538E+02  0.00000000000E+00 0. -1.
         13    1    1    2    0    0 -0.22758493613E+01  0.97497763495E+01  0.34540544082E+01  0.10591472281E+02  0.10566000000E+00 0.  1.
        996    1    1    2    0    0  0.22758493613E+01 -0.97497763495E+01  0.85985609233E+02  0.99968808257E+02  0.50000000000E+02 0.  0.
<mgrwt>
<rscale>  0 0.50992525E+02</rscale>
<asrwt>0</asrwt>
<pdfrwt beam="1">  1       13 0.10000000E+01 0.50992525E+02</pdfrwt>
<pdfrwt beam="2">  1       22 0.10560306E+00 0.50992525E+02</pdfrwt>
<totfact> 0.12988574E+00</totfact>
</mgrwt>
</event>
<event>
 4    1  0.2486873E+000  0.5195456E+02  0.7957747E-01  0.1435076E+00
         13   -1    0    0    0    0  0.00000000000E+00  0.00000000000E+00  0.99999944174E+02  0.99999999994E+02  0.10566000000E+00 0. -1.
         22   -1    0    0    0    0 -0.00000000000E+00 -0.00000000000E+00 -0.11518383121E+02  0.11518383121E+02  0.00000000000E+00 0. -1.
         13    1    1    2    0    0  0.78182891421E+01  0.11753754125E+02  0.30843076604E+02  0.33920243507E+02  0.10566000000E+00 0.  1.
        996    1    1    2    0    0 -0.78182891421E+01 -0.11753754125E+02  0.57638484449E+02  0.77598139609E+02  0.50000000000E+02 0.  0.
<mgrwt>
<rscale>  0 0.51954561E+02</rscale>
<asrwt>0</asrwt>
<pdfrwt beam="1">  1       13 0.10000000E+01 0.51954561E+02</pdfrwt>
<pdfrwt beam="2">  1       22 0.11518408E+00 0.51954561E+02</pdfrwt>
<totfact> 0.11438803E+00</totfact>
</mgrwt>
</event>
<event>
 4    1  0.2486873E+000  0.5137758E+02  0.7957747E-01  0.1438050E+00
         13   -1    0    0    0    0  0.00000000000E+00  0.00000000000E+00  0.99999944177E+02  0.99999999997E+02  0.10566000000E+00 0.  1.
         22   -1    0    0    0    0 -0.00000000000E+00 -0.00000000000E+00 -0.12443387225E+02  0.12443387225E+02  0.00000000000E+00 0.  1.
         13    1    1    2    0    0  0.96092320684E+01  0.68788203483E+01  0.10949076677E+01  0.11868677145E+02  0.10566000000E+00 0. -1.
        996    1    1    2    0    0 -0.96092320684E+01 -0.68788203483E+01  0.86461649284E+02  0.10057471008E+03  0.50000000000E+02 0.  0.
<mgrwt>
<rscale>  0 0.51377578E+02</rscale>
<asrwt>0</asrwt>
<pdfrwt beam="1">  1       13 0.10000000E+01 0.51377578E+02</pdfrwt>
<pdfrwt beam="2">  1       22 0.12443412E+00 0.51377578E+02</pdfrwt>
<totfact> 0.10150704E+00</totfact>
</mgrwt>
</event>
<event>
 4    1  0.2486873E+000  0.5786506E+02  0.7957747E-01  0.1407016E+00
         13   -1    0    0    0    0  0.00000000000E+00  0.00000000000E+00  0.99999944179E+02  0.99999999999E+02  0.10566000000E+00 0. -1.
         22   -1    0    0    0    0 -0.00000000000E+00 -0.00000000000E+00 -0.18932684309E+02  0.18932684309E+02  0.00000000000E+00 0. -1.
         13    1    1    2    0    0  0.28913371640E+02  0.35188018704E+01  0.28663082012E+02  0.40865002883E+02  0.10566000000E+00 0.  1.
        996    1    1    2    0    0 -0.28913371640E+02 -0.35188018704E+01  0.52404177857E+02  0.78067681425E+02  0.50000000000E+02 0.  0.
<mgrwt>
<rscale>  0 0.57865059E+02</rscale>
<asrwt>0</asrwt>
<pdfrwt beam="1">  1       13 0.10000000E+01 0.57865059E+02</pdfrwt>
<pdfrwt beam="2">  1       22 0.18932707E+00 0.57865059E+02</pdfrwt>
<totfact> 0.50652097E-01</totfact>
</mgrwt>
</event>
<event>
 4    1  0.2486873E+000  0.6199093E+02  0.7957747E-01  0.1389662E+00
         13   -1    0    0    0    0  0.00000000000E+00  0.00000000000E+00  0.99999944184E+02  0.10000000000E+03  0.10566000000E+00 0.  1.
         22   -1    0    0    0    0 -0.00000000000E+00 -0.00000000000E+00 -0.39228597020E+02  0.39228597020E+02  0.00000000000E+00 0.  1.
         13    1    1    2    0    0  0.53076685056E+01 -0.36258849461E+02 -0.16479441361E+02  0.40180326788E+02  0.10566000000E+00 0. -1.
        996    1    1    2    0    0 -0.53076685056E+01  0.36258849461E+02  0.77250788525E+02  0.99048270237E+02  0.50000000000E+02 0.  0.
<mgrwt>
<rscale>  0 0.61990931E+02</rscale>
<asrwt>0</asrwt>
<pdfrwt beam="1">  1       13 0.10000000E+01 0.61990931E+02</pdfrwt>
<pdfrwt beam="2">  1       22 0.39228614E+00 0.61990931E+02</pdfrwt>
<totfact> 0.12924201E-01</totfact>
</mgrwt>
</event>
<event>
 4    1  0.2486873E+000  0.7032746E+02  0.7957747E-01  0.1358983E+00
         13   -1    0    0    0    0  0.00000000000E+00  0.00000000000E+00  0.99999944184E+02  0.10000000000E+03  0.10566000000E+00 0. -1.
         22   -1    0    0    0    0 -0.00000000000E+00 -0.00000000000E+00 -0.46043053423E+02  0.46043053423E+02  0.00000000000E+00 0.  1.
         13    1    1    2    0    0 -0.81823396643E+01  0.48774999076E+02 -0.10598094062E+02  0.50579462028E+02  0.10566000000E+00 0.  1.
        996    1    1    2    0    0  0.81823396643E+01 -0.48774999076E+02  0.64554984823E+02  0.95463591399E+02  0.50000000000E+02 0.  0.
<mgrwt>
<rscale>  0 0.70327457E+02</rscale>
<asrwt>0</asrwt>
<pdfrwt beam="1">  1       13 0.10000000E+01 0.70327457E+02</pdfrwt>
<pdfrwt beam="2">  1       22 0.46043069E+00 0.70327457E+02</pdfrwt>
<totfact> 0.92267292E-02</totfact>
</mgrwt>
</event>
<event>
 4    1  0.2486873E+000  0.5103056E+02  0.7957747E-01  0.1439861E+00
         13   -1    0    0    0    0  0.00000000000E+00  0.00000000000E+00  0.99999944181E+02  0.10000000000E+03  0.10566000000E+00 0. -1.
         22   -1    0    0    0    0 -0.00000000000E+00 -0.00000000000E+00 -0.95379863228E+01  0.95379863228E+01  0.00000000000E+00 0. -1.
         13    1    1    2    0    0  0.33582175200E+01  0.96353622588E+01  0.10207769726E+02  0.14433556651E+02  0.10566000000E+00 0.  1.
        996    1    1    2    0    0 -0.33582175200E+01 -0.96353622588E+01  0.80254188132E+02  0.95104429673E+02  0.50000000000E+02 0.  0.
<mgrwt>
<rscale>  0 0.51030558E+02</rscale>
<asrwt>0</asrwt>
<pdfrwt beam="1">  1       13 0.10000000E+01 0.51030558E+02</pdfrwt>
<pdfrwt beam="2">  1       22 0.95380116E-01 0.51030558E+02</pdfrwt>
<totfact> 0.15055441E+00</totfact>
</mgrwt>
</event>
<event>
 4    1  0.2486873E+000  0.5728793E+02  0.7957747E-01  0.1409579E+00
         13   -1    0    0    0    0  0.00000000000E+00  0.00000000000E+00  0.99999944187E+02  0.10000000001E+03  0.10566000000E+00 0.  1.
         22   -1    0    0    0    0 -0.00000000000E+00 -0.00000000000E+00 -0.66364579320E+02  0.66364579320E+02  0.00000000000E+00 0. -1.
         13    1    1    2    0    0 -0.10943445459E+02  0.25732241173E+02 -0.54495280175E+02  0.61250746605E+02  0.10566000000E+00 0. -1.
        996    1    1    2    0    0  0.10943445459E+02 -0.25732241173E+02  0.88130645041E+02  0.10511383272E+03  0.50000000000E+02 0.  0.
<mgrwt>
<rscale>  0 0.57287933E+02</rscale>
<asrwt>0</asrwt>
<pdfrwt beam="1">  1       13 0.10000000E+01 0.57287933E+02</pdfrwt>
<pdfrwt beam="2">  1       22 0.66364589E+00 0.57287933E+02</pdfrwt>
<totfact> 0.87114524E-02</totfact>
</mgrwt>
</event>
<event>
 4    1  0.2486873E+000  0.5325067E+02  0.7957747E-01  0.1428557E+00
         13   -1    0    0    0    0  0.00000000000E+00  0.00000000000E+00  0.99999944175E+02  0.99999999996E+02  0.10566000000E+00 0. -1.
         22   -1    0    0    0    0 -0.00000000000E+00 -0.00000000000E+00 -0.12811300680E+02  0.12811300680E+02  0.00000000000E+00 0. -1.
         13    1    1    2    0    0  0.98742695706E+01  0.15431539368E+02  0.21334508934E+02  0.28121273839E+02  0.10566000000E+00 0.  1.
        996    1    1    2    0    0 -0.98742695706E+01 -0.15431539368E+02  0.65854134561E+02  0.84690026837E+02  0.50000000000E+02 0.  0.
<mgrwt>
<rscale>  0 0.53250668E+02</rscale>
<asrwt>0</asrwt>
<pdfrwt beam="1">  1       13 0.10000000E+01 0.53250668E+02</pdfrwt>
<pdfrwt beam="2">  1       22 0.12811325E+00 0.53250668E+02</pdfrwt>
<totfact> 0.97394290E-01</totfact>
</mgrwt>
</event>
<event>
 4    1  0.2486873E+000  0.5269115E+02  0.7957747E-01  0.1431344E+00
         13   -1    0    0    0    0  0.00000000000E+00  0.00000000000E+00  0.99999944176E+02  0.99999999996E+02  0.10566000000E+00 0.  1.
         22   -1    0    0    0    0 -0.00000000000E+00 -0.00000000000E+00 -0.12034735068E+02  0.12034735068E+02  0.00000000000E+00 0.  1.
         13    1    1    2    0    0 -0.90567801469E+01  0.13940292130E+02  0.23241122129E+02  0.28574777920E+02  0.10566000000E+00 0. -1.
        996    1    1    2    0    0  0.90567801469E+01 -0.13940292130E+02  0.64724086979E+02  0.83459957144E+02  0.50000000000E+02 0.  0.
<mgrwt>
<rscale>  0 0.52691147E+02</rscale>
<asrwt>0</asrwt>
<pdfrwt beam="1">  1       13 0.10000000E+01 0.52691147E+02</pdfrwt>
<pdfrwt beam="2">  1       22 0.12034760E+00 0.52691147E+02</pdfrwt>
<totfact> 0.10718293E+00</totfact>
</mgrwt>
</event>
<event>
 4    1  0.2486873E+000  0.5608603E+02  0.7957747E-01  0.1415032E+00
         13   -1    0    0    0    0  0.00000000000E+00  0.00000000000E+00  0.99999944176E+02  0.99999999997E+02  0.10566000000E+00 0.  1.
         22   -1    0    0    0    0 -0.00000000000E+00 -0.00000000000E+00 -0.31957307974E+02  0.31957307974E+02  0.00000000000E+00 0. -1.
         13    1    1    2    0    0  0.13652589808E+02 -0.21430106925E+02 -0.16648901758E+02  0.30378278179E+02  0.10566000000E+00 0. -1.
        996    1    1    2    0    0 -0.13652589808E+02  0.21430106925E+02  0.84691537961E+02  0.10157902979E+03  0.50000000000E+02 0.  0.
<mgrwt>
<rscale>  0 0.56086029E+02</rscale>
<asrwt>0</asrwt>
<pdfrwt beam="1">  1       13 0.10000000E+01 0.56086029E+02</pdfrwt>
<pdfrwt beam="2">  1       22 0.31957327E+00 0.56086029E+02</pdfrwt>
<totfact> 0.18530012E-01</totfact>
</mgrwt>
</event>
<event>
 4    1  0.2486873E+000  0.6476434E+02  0.7957747E-01  0.1378860E+00
         13   -1    0    0    0    0  0.00000000000E+00  0.00000000000E+00  0.99999944179E+02  0.99999999999E+02  0.10566000000E+00 0. -1.
         22   -1    0    0    0    0 -0.00000000000E+00 -0.00000000000E+00 -0.51445439638E+02  0.51445439638E+02  0.00000000000E+00 0.  1.
         13    1    1    2    0    0  0.33315646898E+02 -0.24176181409E+02 -0.29038827503E+02  0.50375437889E+02  0.10566000000E+00 0.  1.
        996    1    1    2    0    0 -0.33315646898E+02  0.24176181409E+02  0.77593332044E+02  0.10107000175E+03  0.50000000000E+02 0.  0.
<mgrwt>
<rscale>  0 0.64764343E+02</rscale>
<asrwt>0</asrwt>
<pdfrwt beam="1">  1       13 0.10000000E+01 0.64764343E+02</pdfrwt>
<pdfrwt beam="2">  1       22 0.51445453E+00 0.64764343E+02</pdfrwt>
<totfact> 0.68485717E-02</totfact>
</mgrwt>
</event>
<event>
 4    1  0.2486873E+000  0.5115981E+02  0.7957747E-01  0.1439184E+00
         13   -1    0    0    0    0  0.00000000000E+00  0.00000000000E+00  0.99999944180E+02  0.10000000000E+03  0.10566000000E+00 0.  1.
         22   -1    0    0    0    0 -0.00000000000E+00 -0.00000000000E+00 -0.12893897009E+02  0.12893897009E+02  0.00000000000E+00 0.  1.
         13    1    1    2    0    0 -0.93292631024E+01 -0.55037052222E+01 -0.11384161330E+01  0.10891881221E+02  0.10566000000E+00 0. -1.
        996    1    1    2    0    0  0.93292631024E+01  0.55037052222E+01  0.88244463304E+02  0.10200201579E+03  0.50000000000E+02 0.  0.
<mgrwt>
<rscale>  0 0.51159808E+02</rscale>
<asrwt>0</asrwt>
<pdfrwt beam="1">  1       13 0.10000000E+01 0.51159808E+02</pdfrwt>
<pdfrwt beam="2">  1       22 0.12893921E+00 0.51159808E+02</pdfrwt>
<totfact> 0.95981361E-01</totfact>
</mgrwt>
</event>
<event>
 4    1  0.2486873E+000  0.6612400E+02  0.7957747E-01  0.1373793E+00
         13   -1    0    0    0    0  0.00000000000E+00  0.00000000000E+00  0.99999944180E+02  0.10000000000E+03  0.10566000000E+00 0.  1.
         22   -1    0    0    0    0 -0.00000000000E+00 -0.00000000000E+00 -0.72842190516E+02  0.72842190516E+02  0.00000000000E+00 0. -1.
         13    1    1    2    0    0 -0.10584635988E+02 -0.41956506751E+02 -0.53329371561E+02  0.68676167722E+02  0.10566000000E+00 0. -1.
        996    1    1    2    0    0  0.10584635988E+02  0.41956506751E+02  0.80487125226E+02  0.10416602279E+03  0.50000000000E+02 0.  0.
<mgrwt>
<rscale>  0 0.66123997E+02</rscale>
<asrwt>0</asrwt>
<pdfrwt beam="1">  1       13 0.10000000E+01 0.66123997E+02</pdfrwt>
<pdfrwt beam="2">  1       22 0.72842198E+00 0.66123997E+02</pdfrwt>
<totfact> 0.59573475E-02</totfact>
</mgrwt>
</event>
<event>
 4    1  0.2486873E+000  0.5548804E+02  0.7957747E-01  0.1417805E+00
         13   -1    0    0    0    0  0.00000000000E+00  0.00000000000E+00  0.99999944184E+02  0.10000000000E+03  0.10566000000E+00 0.  1.
         22   -1    0    0    0    0 -0.00000000000E+00 -0.00000000000E+00 -0.29022500802E+02  0.29022500802E+02  0.00000000000E+00 0. -1.
         13    1    1    2    0    0 -0.19882077843E+02 -0.13550848754E+02 -0.13772233993E+02  0.27723782471E+02  0.10566000000E+00 0. -1.
        996    1    1    2    0    0  0.19882077843E+02  0.13550848754E+02  0.84749677375E+02  0.10129871834E+03  0.50000000000E+02 0.  0.
<mgrwt>
<rscale>  0 0.55488039E+02</rscale>
<asrwt>0</asrwt>
<pdfrwt beam="1">  1       13 0.10000000E+01 0.55488039E+02</pdfrwt>
<pdfrwt beam="2">  1       22 0.29022521E+00 0.55488039E+02</pdfrwt>
<totfact> 0.22141248E-01</totfact>
</mgrwt>
</event>
<event>
 4    1  0.2486873E+000  0.5224108E+02  0.7957747E-01  0.1433615E+00
         13   -1    0    0    0    0  0.00000000000E+00  0.00000000000E+00  0.99999944182E+02  0.10000000000E+03  0.10566000000E+00 0. -1.
         22   -1    0    0    0    0 -0.00000000000E+00 -0.00000000000E+00 -0.37663135241E+02  0.37663135241E+02  0.00000000000E+00 0.  1.
         13    1    1    2    0    0 -0.15096214364E+02 -0.11112918070E+01 -0.28845318466E+02  0.32575976103E+02  0.10566000000E+00 0.  1.
        996    1    1    2    0    0  0.15096214364E+02  0.11112918070E+01  0.91182127407E+02  0.10508715914E+03  0.50000000000E+02 0.  0.
<mgrwt>
<rscale>  0 0.52241082E+02</rscale>
<asrwt>0</asrwt>
<pdfrwt beam="1">  1       13 0.10000000E+01 0.52241082E+02</pdfrwt>
<pdfrwt beam="2">  1       22 0.37663153E+00 0.52241082E+02</pdfrwt>
<totfact> 0.13816452E-01</totfact>
</mgrwt>
</event>
<event>
 4    1  0.2486873E+000  0.5385495E+02  0.7957747E-01  0.1425593E+00
         13   -1    0    0    0    0  0.00000000000E+00  0.00000000000E+00  0.99999944181E+02  0.10000000000E+03  0.10566000000E+00 0. -1.
         22   -1    0    0    0    0 -0.00000000000E+00 -0.00000000000E+00 -0.45990483587E+02  0.45990483587E+02  0.00000000000E+00 0.  1.
         13    1    1    2    0    0  0.21080223666E+01  0.19897540334E+02 -0.35949657345E+02  0.41142981138E+02  0.10566000000E+00 0.  1.
        996    1    1    2    0    0 -0.21080223666E+01 -0.19897540334E+02  0.89959117939E+02  0.10484750245E+03  0.50000000000E+02 0.  0.
<mgrwt>
<rscale>  0 0.53854952E+02</rscale>
<asrwt>0</asrwt>
<pdfrwt beam="1">  1       13 0.10000000E+01 0.53854952E+02</pdfrwt>
<pdfrwt beam="2">  1       22 0.45990499E+00 0.53854952E+02</pdfrwt>
<totfact> 0.91811340E-02</totfact>
</mgrwt>
</event>
<event>
 4    1  0.2486873E+000  0.5160716E+02  0.7957747E-01  0.1436861E+00
         13   -1    0    0    0    0  0.00000000000E+00  0.00000000000E+00  0.99999944183E+02  0.10000000000E+03  0.10566000000E+00 0. -1.
         22   -1    0    0    0    0 -0.00000000000E+00 -0.00000000000E+00 -0.15694057511E+02  0.15694057511E+02  0.00000000000E+00 0.  1.
         13    1    1    2    0    0  0.47000195630E+01 -0.11883120411E+02 -0.40199919264E+01  0.13396650094E+02  0.10566000000E+00 0.  1.
        996    1    1    2    0    0 -0.47000195630E+01  0.11883120411E+02  0.88325878598E+02  0.10229740742E+03  0.50000000000E+02 0.  0.
<mgrwt>
<rscale>  0 0.51607158E+02</rscale>
<asrwt>0</asrwt>
<pdfrwt beam="1">  1       13 0.10000000E+01 0.51607158E+02</pdfrwt>
<pdfrwt beam="2">  1       22 0.15694081E+00 0.51607158E+02</pdfrwt>
<totfact> 0.69726476E-01</totfact>
</mgrwt>
</event>
<event>
 4    1  0.2486873E+000  0.6134096E+02  0.7957747E-01  0.1392289E+00
         13   -1    0    0    0    0  0.00000000000E+00  0.00000000000E+00  0.99999944178E+02  0.99999999998E+02  0.10566000000E+00 0. -1.
         22   -1    0    0    0    0 -0.00000000000E+00 -0.00000000000E+00 -0.31196212486E+02  0.31196212486E+02  0.00000000000E+00 0.  1.
         13    1    1    2    0    0  0.34474513373E+02  0.86151741293E+01 -0.42686569801E+01  0.35790304470E+02  0.10566000000E+00 0.  1.
        996    1    1    2    0    0 -0.34474513373E+02 -0.86151741293E+01  0.73072388672E+02  0.95405908014E+02  0.50000000000E+02 0.  0.
<mgrwt>
<rscale>  0 0.61340959E+02</rscale>
<asrwt>0</asrwt>
<pdfrwt beam="1">  1       13 0.10000000E+01 0.61340959E+02</pdfrwt>
<pdfrwt beam="2">  1       22 0.31196232E+00 0.61340959E+02</pdfrwt>
<totfact> 0.19470546E-01</totfact>
</mgrwt>
</event>
<event>
 4    1  0.2486873E+000  0.6655140E+02  0.7957747E-01  0.1372229E+00
         13   -1    0    0    0    0  0.00000000000E+00  0.00000000000E+00  0.99999944181E+02  0.10000000000E+03  0.10566000000E+00 0. -1.
         22   -1    0    0    0    0 -0.00000000000E+00 -0.00000000000E+00 -0.59278341099E+02  0.59278341099E+02  0.00000000000E+00 0.  1.
         13    1    1    2    0    0 -0.51722838805E+00 -0.43918348184E+02 -0.36662862186E+02  0.57212458959E+02  0.10566000000E+00 0.  1.
        996    1    1    2    0    0  0.51722838805E+00  0.43918348184E+02  0.77384465269E+02  0.10206588214E+03  0.50000000000E+02 0.  0.
<mgrwt>
<rscale>  0 0.66551400E+02</rscale>
<asrwt>0</asrwt>
<pdfrwt beam="1">  1       13 0.10000000E+01 0.66551400E+02</pdfrwt>
<pdfrwt beam="2">  1       22 0.59278352E+00 0.66551400E+02</pdfrwt>
<totfact> 0.61330230E-02</totfact>
</mgrwt>
</event>
<event>
 4    1  0.2486873E+000  0.6152734E+02  0.7957747E-01  0.1391532E+00
         13   -1    0    0    0    0  0.00000000000E+00  0.00000000000E+00  0.99999944178E+02  0.99999999999E+02  0.10566000000E+00 0.  1.
         22   -1    0    0    0    0 -0.00000000000E+00 -0.00000000000E+00 -0.27364849914E+02  0.27364849914E+02  0.00000000000E+00 0. -1.
         13    1    1    2    0    0 -0.33800459777E+02  0.11964193011E+02  0.54566414543E+01  0.36268431115E+02  0.10566000000E+00 0. -1.
        996    1    1    2    0    0  0.33800459777E+02 -0.11964193011E+02  0.67178452810E+02  0.91096418797E+02  0.50000000000E+02 0.  0.
<mgrwt>
<rscale>  0 0.61527335E+02</rscale>
<asrwt>0</asrwt>
<pdfrwt beam="1">  1       13 0.10000000E+01 0.61527335E+02</pdfrwt>
<pdfrwt beam="2">  1       22 0.27364870E+00 0.61527335E+02</pdfrwt>
<totfact> 0.25001668E-01</totfact>
</mgrwt>
</event>
<event>
 4    1  0.2486873E+000  0.5317331E+02  0.7957747E-01  0.1428940E+00
         13   -1    0    0    0    0  0.00000000000E+00  0.00000000000E+00  0.99999944179E+02  0.10000000000E+03  0.10566000000E+00 0.  1.
         22   -1    0    0    0    0 -0.00000000000E+00 -0.00000000000E+00 -0.18765674600E+02  0.18765674600E+02  0.00000000000E+00 0. -1.
         13    1    1    2    0    0 -0.17518255005E+02 -0.45289454863E+01 -0.37864441514E+01  0.18486452580E+02  0.10566000000E+00 0. -1.
        996    1    1    2    0    0  0.17518255005E+02  0.45289454863E+01  0.85020713731E+02  0.10027922202E+03  0.50000000000E+02 0.  0.
<mgrwt>
<rscale>  0 0.53173307E+02</rscale>
<asrwt>0</asrwt>
<pdfrwt beam="1">  1       13 0.10000000E+01 0.53173307E+02</pdfrwt>
<pdfrwt beam="2">  1       22 0.18765697E+00 0.53173307E+02</pdfrwt>
<totfact> 0.51064900E-01</totfact>
</mgrwt>
</event>
<event>
 4    1  0.2486873E+000  0.5137451E+02  0.7957747E-01  0.1438066E+00
         13   -1    0    0    0    0  0.00000000000E+00  0.00000000000E+00  0.99999944175E+02  0.99999999995E+02  0.10566000000E+00 0.  1.
         22   -1    0    0    0    0 -0.00000000000E+00 -0.00000000000E+00 -0.11255244536E+02  0.11255244536E+02  0.00000000000E+00 0. -1.
         13    1    1    2    0    0 -0.39698062601E+01  0.11116708827E+02  0.46050391975E+01  0.12671153339E+02  0.10566000000E+00 0. -1.
        996    1    1    2    0    0  0.39698062601E+01 -0.11116708827E+02  0.84139660441E+02  0.98584091192E+02  0.50000000000E+02 0.  0.
<mgrwt>
<rscale>  0 0.51374513E+02</rscale>
<asrwt>0</asrwt>
<pdfrwt beam="1">  1       13 0.10000000E+01 0.51374513E+02</pdfrwt>
<pdfrwt beam="2">  1       22 0.11255269E+00 0.51374513E+02</pdfrwt>
<totfact> 0.11827469E+00</totfact>
</mgrwt>
</event>
<event>
 4    1  0.2486873E+000  0.5407407E+02  0.7957747E-01  0.1424529E+00
         13   -1    0    0    0    0  0.00000000000E+00  0.00000000000E+00  0.99999944181E+02  0.10000000000E+03  0.10566000000E+00 0. -1.
         22   -1    0    0    0    0 -0.00000000000E+00 -0.00000000000E+00 -0.13941622987E+02  0.13941622987E+02  0.00000000000E+00 0. -1.
         13    1    1    2    0    0 -0.20576696254E+02 -0.77761889916E+00  0.22853404207E+02  0.30761897987E+02  0.10566000000E+00 0.  1.
        996    1    1    2    0    0  0.20576696254E+02  0.77761889916E+00  0.63204916988E+02  0.83179725001E+02  0.50000000000E+02 0.  0.
<mgrwt>
<rscale>  0 0.54074071E+02</rscale>
<asrwt>0</asrwt>
<pdfrwt beam="1">  1       13 0.10000000E+01 0.54074071E+02</pdfrwt>
<pdfrwt beam="2">  1       22 0.13941647E+00 0.54074071E+02</pdfrwt>
<totfact> 0.85263868E-01</totfact>
</mgrwt>
</event>
<event>
 4    1  0.2486873E+000  0.6531725E+02  0.7957747E-01  0.1376782E+00
         13   -1    0    0    0    0  0.00000000000E+00  0.00000000000E+00  0.99999944174E+02  0.99999999994E+02  0.10566000000E+00 0.  1.
         22   -1    0    0    0    0 -0.00000000000E+00 -0.00000000000E+00 -0.72666356854E+02  0.72666356854E+02  0.00000000000E+00 0. -1.
         13    1    1    2    0    0  0.39902849132E+02  0.13194908039E+02 -0.53951690943E+02  0.68389612417E+02  0.10566000000E+00 0. -1.
        996    1    1    2    0    0 -0.39902849132E+02 -0.13194908039E+02  0.81285278262E+02  0.10427674443E+03  0.50000000000E+02 0.  0.
<mgrwt>
<rscale>  0 0.65317249E+02</rscale>
<asrwt>0</asrwt>
<pdfrwt beam="1">  1       13 0.10000000E+01 0.65317249E+02</pdfrwt>
<pdfrwt beam="2">  1       22 0.72666365E+00 0.65317249E+02</pdfrwt>
<totfact> 0.60491035E-02</totfact>
</mgrwt>
</event>
<event>
 4    1  0.2486873E+000  0.5423598E+02  0.7957747E-01  0.1423747E+00
         13   -1    0    0    0    0  0.00000000000E+00  0.00000000000E+00  0.99999944177E+02  0.99999999997E+02  0.10566000000E+00 0.  1.
         22   -1    0    0    0    0 -0.00000000000E+00 -0.00000000000E+00 -0.78655963792E+02  0.78655963792E+02  0.00000000000E+00 0. -1.
         13    1    1    2    0    0  0.16111469770E+02  0.13489322557E+02 -0.69635611388E+02  0.72736997592E+02  0.10566000000E+00 0. -1.
        996    1    1    2    0    0 -0.16111469770E+02 -0.13489322557E+02  0.90979591773E+02  0.10591896620E+03  0.50000000000E+02 0.  0.
<mgrwt>
<rscale>  0 0.54235978E+02</rscale>
<asrwt>0</asrwt>
<pdfrwt beam="1">  1       13 0.10000000E+01 0.54235978E+02</pdfrwt>
<pdfrwt beam="2">  1       22 0.78655970E+00 0.54235978E+02</pdfrwt>
<totfact> 0.34939515E-02</totfact>
</mgrwt>
</event>
<event>
 4    1  0.2486873E+000  0.5607233E+02  0.7957747E-01  0.1415095E+00
         13   -1    0    0    0    0  0.00000000000E+00  0.00000000000E+00  0.99999944167E+02  0.99999999987E+02  0.10566000000E+00 0. -1.
         22   -1    0    0    0    0 -0.00000000000E+00 -0.00000000000E+00 -0.18948044881E+02  0.18948044881E+02  0.00000000000E+00 0.  1.
         13    1    1    2    0    0  0.59525579283E+00  0.25372264509E+02  0.75081706331E+01  0.26466770224E+02  0.10566000000E+00 0.  1.
        996    1    1    2    0    0 -0.59525579283E+00 -0.25372264509E+02  0.73543728652E+02  0.92481274645E+02  0.50000000000E+02 0.  0.
<mgrwt>
<rscale>  0 0.56072330E+02</rscale>
<asrwt>0</asrwt>
<pdfrwt beam="1">  1       13 0.10000000E+01 0.56072330E+02</pdfrwt>
<pdfrwt beam="2">  1       22 0.18948068E+00 0.56072330E+02</pdfrwt>
<totfact> 0.50425688E-01</totfact>
</mgrwt>
</event>
<event>
 4    1  0.2486873E+000  0.5113272E+02  0.7957747E-01  0.1439326E+00
         13   -1    0    0    0    0  0.00000000000E+00  0.00000000000E+00  0.99999944186E+02  0.10000000001E+03  0.10566000000E+00 0. -1.
         22   -1    0    0    0    0 -0.00000000000E+00 -0.00000000000E+00 -0.63355445604E+02  0.63355445604E+02  0.00000000000E+00 0. -1.
         13    1    1    2    0    0 -0.10038546255E+02  0.37125006418E+01 -0.56281571220E+02  0.57290326364E+02  0.10566000000E+00 0.  1.
        996    1    1    2    0    0  0.10038546255E+02 -0.37125006418E+01  0.92926069801E+02  0.10606511925E+03  0.50000000000E+02 0.  0.
<mgrwt>
<rscale>  0 0.51132720E+02</rscale>
<asrwt>0</asrwt>
<pdfrwt beam="1">  1       13 0.10000000E+01 0.51132720E+02</pdfrwt>
<pdfrwt beam="2">  1       22 0.63355456E+00 0.51132720E+02</pdfrwt>
<totfact> 0.80569331E-02</totfact>
</mgrwt>
</event>
<event>
 4    1  0.2486873E+000  0.6835485E+02  0.7957747E-01  0.1365779E+00
         13   -1    0    0    0    0  0.00000000000E+00  0.00000000000E+00  0.99999944176E+02  0.99999999997E+02  0.10566000000E+00 0.  1.
         22   -1    0    0    0    0 -0.00000000000E+00 -0.00000000000E+00 -0.60346970587E+02  0.60346970587E+02  0.00000000000E+00 0. -1.
         13    1    1    2    0    0 -0.46254016167E+02 -0.57403694887E+01 -0.35625515426E+02  0.58664933025E+02  0.10566000000E+00 0. -1.
        996    1    1    2    0    0  0.46254016167E+02  0.57403694887E+01  0.75278489016E+02  0.10168203756E+03  0.50000000000E+02 0.  0.
<mgrwt>
<rscale>  0 0.68354852E+02</rscale>
<asrwt>0</asrwt>
<pdfrwt beam="1">  1       13 0.10000000E+01 0.68354852E+02</pdfrwt>
<pdfrwt beam="2">  1       22 0.60346982E+00 0.68354852E+02</pdfrwt>
<totfact> 0.64974714E-02</totfact>
</mgrwt>
</event>
<event>
 4    1  0.2486873E+000  0.5147018E+02  0.7957747E-01  0.1437569E+00
         13   -1    0    0    0    0  0.00000000000E+00  0.00000000000E+00  0.99999944174E+02  0.99999999995E+02  0.10566000000E+00 0.  1.
         22   -1    0    0    0    0 -0.00000000000E+00 -0.00000000000E+00 -0.13605924861E+02  0.13605924861E+02  0.00000000000E+00 0.  1.
         13    1    1    2    0    0  0.10798559174E+02  0.57070904244E+01 -0.92165417772E+00  0.12249096775E+02  0.10566000000E+00 0. -1.
        996    1    1    2    0    0 -0.10798559174E+02 -0.57070904244E+01  0.87315673491E+02  0.10135682808E+03  0.50000000000E+02 0.  0.
<mgrwt>
<rscale>  0 0.51470183E+02</rscale>
<asrwt>0</asrwt>
<pdfrwt beam="1">  1       13 0.10000000E+01 0.51470183E+02</pdfrwt>
<pdfrwt beam="2">  1       22 0.13605949E+00 0.51470183E+02</pdfrwt>
<totfact> 0.88198700E-01</totfact>
</mgrwt>
</event>
<event>
 4    1  0.2486873E+000  0.5301725E+02  0.7957747E-01  0.1429715E+00
         13   -1    0    0    0    0  0.00000000000E+00  0.00000000000E+00  0.99999944168E+02  0.99999999988E+02  0.10566000000E+00 0.  1.
         22   -1    0    0    0    0 -0.00000000000E+00 -0.00000000000E+00 -0.17801906904E+02  0.17801906904E+02  0.00000000000E+00 0.  1.
         13    1    1    2    0    0  0.15909464710E+02  0.75972271760E+01 -0.25726982345E+01  0.17817375463E+02  0.10566000000E+00 0. -1.
        996    1    1    2    0    0 -0.15909464710E+02 -0.75972271760E+01  0.84770735498E+02  0.99984531429E+02  0.50000000000E+02 0.  0.
<mgrwt>
<rscale>  0 0.53017251E+02</rscale>
<asrwt>0</asrwt>
<pdfrwt beam="1">  1       13 0.10000000E+01 0.53017251E+02</pdfrwt>
<pdfrwt beam="2">  1       22 0.17801930E+00 0.53017251E+02</pdfrwt>
<totfact> 0.56146079E-01</totfact>
</mgrwt>
</event>
<event>
 4    1  0.2486873E+000  0.5431891E+02  0.7957747E-01  0.1423348E+00
         13   -1    0    0    0    0  0.00000000000E+00  0.00000000000E+00  0.99999944180E+02  0.10000000000E+03  0.10566000000E+00 0. -1.
         22   -1    0    0    0    0 -0.00000000000E+00 -0.00000000000E+00 -0.20615810360E+02  0.20615810360E+02  0.00000000000E+00 0.  1.
         13    1    1    2    0    0  0.63990677431E+01 -0.20238478649E+02 -0.35053591531E+01  0.21513781463E+02  0.10566000000E+00 0.  1.
        996    1    1    2    0    0 -0.63990677431E+01  0.20238478649E+02  0.82889492974E+02  0.99102028897E+02  0.50000000000E+02 0.  0.
<mgrwt>
<rscale>  0 0.54318911E+02</rscale>
<asrwt>0</asrwt>
<pdfrwt beam="1">  1       13 0.10000000E+01 0.54318911E+02</pdfrwt>
<pdfrwt beam="2">  1       22 0.20615833E+00 0.54318911E+02</pdfrwt>
<totfact> 0.42974931E-01</totfact>
</mgrwt>
</event>
<event>
 4    1  0.2486873E+000  0.5105880E+02  0.7957747E-01  0.1439713E+00
         13   -1    0    0    0    0  0.00000000000E+00  0.00000000000E+00  0.99999944178E+02  0.99999999999E+02  0.10566000000E+00 0. -1.
         22   -1    0    0    0    0 -0.00000000000E+00 -0.00000000000E+00 -0.32226064704E+02  0.32226064704E+02  0.00000000000E+00 0.  1.
         13    1    1    2    0    0 -0.10344045715E+02 -0.45343188238E-01 -0.24596446376E+02  0.26683284583E+02  0.10566000000E+00 0.  1.
        996    1    1    2    0    0  0.10344045715E+02  0.45343188238E-01  0.92370325850E+02  0.10554278012E+03  0.50000000000E+02 0.  0.
<mgrwt>
<rscale>  0 0.51058803E+02</rscale>
<asrwt>0</asrwt>
<pdfrwt beam="1">  1       13 0.10000000E+01 0.51058803E+02</pdfrwt>
<pdfrwt beam="2">  1       22 0.32226084E+00 0.51058803E+02</pdfrwt>
<totfact> 0.18147346E-01</totfact>
</mgrwt>
</event>
<event>
 4    1  0.2486873E+000  0.5571955E+02  0.7957747E-01  0.1416726E+00
         13   -1    0    0    0    0  0.00000000000E+00  0.00000000000E+00  0.99999944170E+02  0.99999999990E+02  0.10566000000E+00 0. -1.
         22   -1    0    0    0    0 -0.00000000000E+00 -0.00000000000E+00 -0.26596037386E+02  0.26596037386E+02  0.00000000000E+00 0.  1.
         13    1    1    2    0    0  0.12929497997E+02  0.20916404921E+02 -0.97893774677E+01  0.26467168124E+02  0.10566000000E+00 0.  1.
        996    1    1    2    0    0 -0.12929497997E+02 -0.20916404921E+02  0.83193284252E+02  0.10012886925E+03  0.50000000000E+02 0.  0.
<mgrwt>
<rscale>  0 0.55719547E+02</rscale>
<asrwt>0</asrwt>
<pdfrwt beam="1">  1       13 0.10000000E+01 0.55719547E+02</pdfrwt>
<pdfrwt beam="2">  1       22 0.26596058E+00 0.55719547E+02</pdfrwt>
<totfact> 0.26241739E-01</totfact>
</mgrwt>
</event>
<event>
 4    1  0.2486873E+000  0.5236674E+02  0.7957747E-01  0.1432979E+00
         13   -1    0    0    0    0  0.00000000000E+00  0.00000000000E+00  0.99999944173E+02  0.99999999994E+02  0.10566000000E+00 0.  1.
         22   -1    0    0    0    0 -0.00000000000E+00 -0.00000000000E+00 -0.11810332350E+02  0.11810332350E+02  0.00000000000E+00 0.  1.
         13    1    1    2    0    0 -0.18164031045E+01 -0.15458841873E+02  0.13576585900E+02  0.20654538509E+02  0.10566000000E+00 0. -1.
        996    1    1    2    0    0  0.18164031045E+01  0.15458841873E+02  0.74613025923E+02  0.91155793835E+02  0.50000000000E+02 0.  0.
<mgrwt>
<rscale>  0 0.52366737E+02</rscale>
<asrwt>0</asrwt>
<pdfrwt beam="1">  1       13 0.10000000E+01 0.52366737E+02</pdfrwt>
<pdfrwt beam="2">  1       22 0.11810357E+00 0.52366737E+02</pdfrwt>
<totfact> 0.11023243E+00</totfact>
</mgrwt>
</event>
<event>
 4    1  0.2486873E+000  0.5121797E+02  0.7957747E-01  0.1438881E+00
         13   -1    0    0    0    0  0.00000000000E+00  0.00000000000E+00  0.99999944184E+02  0.10000000000E+03  0.10566000000E+00 0. -1.
         22   -1    0    0    0    0 -0.00000000000E+00 -0.00000000000E+00 -0.99885516842E+01  0.99885516842E+01  0.00000000000E+00 0. -1.
         13    1    1    2    0    0 -0.94115195983E+01 -0.58910131167E+01  0.97470753058E+01  0.14774890109E+02  0.10566000000E+00 0.  1.
        996    1    1    2    0    0  0.94115195983E+01  0.58910131167E+01  0.80264317194E+02  0.95213661579E+02  0.50000000000E+02 0.  0.
<mgrwt>
<rscale>  0 0.51217973E+02</rscale>
<asrwt>0</asrwt>
<pdfrwt beam="1">  1       13 0.10000000E+01 0.51217973E+02</pdfrwt>
<pdfrwt beam="2">  1       22 0.99885768E-01 0.51217973E+02</pdfrwt>
<totfact> 0.14094579E+00</totfact>
</mgrwt>
</event>
<event>
 4    1  0.2486873E+000  0.5223831E+02  0.7957747E-01  0.1433630E+00
         13   -1    0    0    0    0  0.00000000000E+00  0.00000000000E+00  0.99999944179E+02  0.99999999999E+02  0.10566000000E+00 0. -1.
         22   -1    0    0    0    0 -0.00000000000E+00 -0.00000000000E+00 -0.11377646055E+02  0.11377646055E+02  0.00000000000E+00 0. -1.
         13    1    1    2    0    0  0.13342937251E+02  0.71278787285E+01  0.17497143916E+02  0.23130106764E+02  0.10566000000E+00 0.  1.
        996    1    1    2    0    0 -0.13342937251E+02 -0.71278787285E+01  0.71125154208E+02  0.88247539290E+02  0.50000000000E+02 0.  0.
<mgrwt>
<rscale>  0 0.52238306E+02</rscale>
<asrwt>0</asrwt>
<pdfrwt beam="1">  1       13 0.10000000E+01 0.52238306E+02</pdfrwt>
<pdfrwt beam="2">  1       22 0.11377671E+00 0.52238306E+02</pdfrwt>
<totfact> 0.11660129E+00</totfact>
</mgrwt>
</event>
<event>
 4    1  0.2486873E+000  0.5879508E+02  0.7957747E-01  0.1402959E+00
         13   -1    0    0    0    0  0.00000000000E+00  0.00000000000E+00  0.99999944175E+02  0.99999999995E+02  0.10566000000E+00 0.  1.
         22   -1    0    0    0    0 -0.00000000000E+00 -0.00000000000E+00 -0.22058236522E+02  0.22058236522E+02  0.00000000000E+00 0. -1.
         13    1    1    2    0    0 -0.25956152978E+02  0.16826751085E+02  0.10687838079E+02  0.32727701971E+02  0.10566000000E+00 0. -1.
        996    1    1    2    0    0  0.25956152978E+02 -0.16826751085E+02  0.67253869574E+02  0.89330534545E+02  0.50000000000E+02 0.  0.
<mgrwt>
<rscale>  0 0.58795080E+02</rscale>
<asrwt>0</asrwt>
<pdfrwt beam="1">  1       13 0.10000000E+01 0.58795080E+02</pdfrwt>
<pdfrwt beam="2">  1       22 0.22058258E+00 0.58795080E+02</pdfrwt>
<totfact> 0.38038758E-01</totfact>
</mgrwt>
</event>
<event>
 4    1  0.2486873E+000  0.5139470E+02  0.7957747E-01  0.1437961E+00
         13   -1    0    0    0    0  0.00000000000E+00  0.00000000000E+00  0.99999944172E+02  0.99999999992E+02  0.10566000000E+00 0. -1.
         22   -1    0    0    0    0 -0.00000000000E+00 -0.00000000000E+00 -0.20451066374E+02  0.20451066374E+02  0.00000000000E+00 0.  1.
         13    1    1    2    0    0 -0.11695121786E+02  0.21538654401E+01 -0.11086246567E+02  0.16258260574E+02  0.10566000000E+00 0.  1.
        996    1    1    2    0    0  0.11695121786E+02 -0.21538654401E+01  0.90635124365E+02  0.10419280579E+03  0.50000000000E+02 0.  0.
<mgrwt>
<rscale>  0 0.51394698E+02</rscale>
<asrwt>0</asrwt>
<pdfrwt beam="1">  1       13 0.10000000E+01 0.51394698E+02</pdfrwt>
<pdfrwt beam="2">  1       22 0.20451089E+00 0.51394698E+02</pdfrwt>
<totfact> 0.43407575E-01</totfact>
</mgrwt>
</event>
<event>
 4    1  0.2486873E+000  0.5099238E+02  0.7957747E-01  0.1440061E+00
         13   -1    0    0    0    0  0.00000000000E+00  0.00000000000E+00  0.99999944178E+02  0.99999999998E+02  0.10566000000E+00 0.  1.
         22   -1    0    0    0    0 -0.00000000000E+00 -0.00000000000E+00 -0.12035235355E+02  0.12035235355E+02  0.00000000000E+00 0. -1.
         13    1    1    2    0    0 -0.75829179822E+01 -0.65362045289E+01 -0.39259316709E+00  0.10019376637E+02  0.10566000000E+00 0. -1.
        996    1    1    2    0    0  0.75829179822E+01  0.65362045289E+01  0.88357301990E+02  0.10201585872E+03  0.50000000000E+02 0.  0.
<mgrwt>
<rscale>  0 0.50992378E+02</rscale>
<asrwt>0</asrwt>
<pdfrwt beam="1">  1       13 0.10000000E+01 0.50992378E+02</pdfrwt>
<pdfrwt beam="2">  1       22 0.12035260E+00 0.50992378E+02</pdfrwt>
<totfact> 0.10676910E+00</totfact>
</mgrwt>
</event>
<event>
 4    1  0.2486873E+000  0.5188707E+02  0.7957747E-01  0.1435421E+00
         13   -1    0    0    0    0  0.00000000000E+00  0.00000000000E+00  0.99999944184E+02  0.10000000000E+03  0.10566000000E+00 0.  1.
         22   -1    0    0    0    0 -0.00000000000E+00 -0.00000000000E+00 -0.59254229537E+02  0.59254229537E+02  0.00000000000E+00 0. -1.
         13    1    1    2    0    0 -0.13739182945E+02 -0.18714776058E+01 -0.51545056262E+02  0.53377631696E+02  0.10566000000E+00 0. -1.
        996    1    1    2    0    0  0.13739182945E+02  0.18714776058E+01  0.92290770909E+02  0.10587659785E+03  0.50000000000E+02 0.  0.
<mgrwt>
<rscale>  0 0.51887066E+02</rscale>
<asrwt>0</asrwt>
<pdfrwt beam="1">  1       13 0.10000000E+01 0.51887066E+02</pdfrwt>
<pdfrwt beam="2">  1       22 0.59254241E+00 0.51887066E+02</pdfrwt>
<totfact> 0.61135101E-02</totfact>
</mgrwt>
</event>
<event>
 4    1  0.2486873E+000  0.5469844E+02  0.7957747E-01  0.1421530E+00
         13   -1    0    0    0    0  0.00000000000E+00  0.00000000000E+00  0.99999944176E+02  0.99999999996E+02  0.10566000000E+00 0.  1.
         22   -1    0    0    0    0 -0.00000000000E+00 -0.00000000000E+00 -0.16011414974E+02  0.16011414974E+02  0.00000000000E+00 0. -1.
         13    1    1    2    0    0 -0.20589216064E+02 -0.82464030795E+01  0.10876878138E+02  0.24702967918E+02  0.10566000000E+00 0. -1.
        996    1    1    2    0    0  0.20589216064E+02  0.82464030795E+01  0.73111651064E+02  0.91308447053E+02  0.50000000000E+02 0.  0.
<mgrwt>
<rscale>  0 0.54698437E+02</rscale>
<asrwt>0</asrwt>
<pdfrwt beam="1">  1       13 0.10000000E+01 0.54698437E+02</pdfrwt>
<pdfrwt beam="2">  1       22 0.16011438E+00 0.54698437E+02</pdfrwt>
<totfact> 0.67795423E-01</totfact>
</mgrwt>
</event>
<event>
 4    1  0.2486873E+000  0.5833823E+02  0.7957747E-01  0.1404941E+00
         13   -1    0    0    0    0  0.00000000000E+00  0.00000000000E+00  0.99999944175E+02  0.99999999995E+02  0.10566000000E+00 0. -1.
         22   -1    0    0    0    0 -0.00000000000E+00 -0.00000000000E+00 -0.53511013505E+02  0.53511013505E+02  0.00000000000E+00 0.  1.
         13    1    1    2    0    0 -0.59657883297E+01  0.29457736769E+02 -0.39478740878E+02  0.49617849926E+02  0.10566000000E+00 0.  1.
        996    1    1    2    0    0  0.59657883297E+01 -0.29457736769E+02  0.85967671548E+02  0.10389316357E+03  0.50000000000E+02 0.  0.
<mgrwt>
<rscale>  0 0.58338228E+02</rscale>
<asrwt>0</asrwt>
<pdfrwt beam="1">  1       13 0.10000000E+01 0.58338228E+02</pdfrwt>
<pdfrwt beam="2">  1       22 0.53511027E+00 0.58338228E+02</pdfrwt>
<totfact> 0.61880588E-02</totfact>
</mgrwt>
</event>
<event>
 4    1  0.2486873E+000  0.5133077E+02  0.7957747E-01  0.1438293E+00
         13   -1    0    0    0    0  0.00000000000E+00  0.00000000000E+00  0.99999944179E+02  0.99999999999E+02  0.10566000000E+00 0. -1.
         22   -1    0    0    0    0 -0.00000000000E+00 -0.00000000000E+00 -0.35352020765E+02  0.35352020765E+02  0.00000000000E+00 0.  1.
         13    1    1    2    0    0  0.21521363592E+01 -0.11411212778E+02 -0.27511314745E+02  0.29861866502E+02  0.10566000000E+00 0.  1.
        996    1    1    2    0    0 -0.21521363592E+01  0.11411212778E+02  0.92159238159E+02  0.10549015426E+03  0.50000000000E+02 0.  0.
<mgrwt>
<rscale>  0 0.51330765E+02</rscale>
<asrwt>0</asrwt>
<pdfrwt beam="1">  1       13 0.10000000E+01 0.51330765E+02</pdfrwt>
<pdfrwt beam="2">  1       22 0.35352039E+00 0.51330765E+02</pdfrwt>
<totfact> 0.15432013E-01</totfact>
</mgrwt>
</event>
<event>
 4    1  0.2486873E+000  0.5280623E+02  0.7957747E-01  0.1430768E+00
         13   -1    0    0    0    0  0.00000000000E+00  0.00000000000E+00  0.99999944178E+02  0.99999999998E+02  0.10566000000E+00 0.  1.
         22   -1    0    0    0    0 -0.00000000000E+00 -0.00000000000E+00 -0.14340649959E+02  0.14340649959E+02  0.00000000000E+00 0. -1.
         13    1    1    2    0    0 -0.16355798122E+02  0.45810040772E+01  0.45986798576E+01  0.17597066546E+02  0.10566000000E+00 0. -1.
        996    1    1    2    0    0  0.16355798122E+02 -0.45810040772E+01  0.81060614361E+02  0.96743583411E+02  0.50000000000E+02 0.  0.
<mgrwt>
<rscale>  0 0.52806228E+02</rscale>
<asrwt>0</asrwt>
<pdfrwt beam="1">  1       13 0.10000000E+01 0.52806228E+02</pdfrwt>
<pdfrwt beam="2">  1       22 0.14340674E+00 0.52806228E+02</pdfrwt>
<totfact> 0.81225626E-01</totfact>
</mgrwt>
</event>
<event>
 4    1  0.2486873E+000  0.6698567E+02  0.7957747E-01  0.1370654E+00
         13   -1    0    0    0    0  0.00000000000E+00  0.00000000000E+00  0.99999944187E+02  0.10000000001E+03  0.10566000000E+00 0.  1.
         22   -1    0    0    0    0 -0.00000000000E+00 -0.00000000000E+00 -0.56354756470E+02  0.56354756470E+02  0.00000000000E+00 0. -1.
         13    1    1    2    0    0  0.44526337775E+02 -0.21178007243E+01 -0.32330003832E+02  0.55066506584E+02  0.10566000000E+00 0. -1.
        996    1    1    2    0    0 -0.44526337775E+02  0.21178007243E+01  0.75975191548E+02  0.10128824989E+03  0.50000000000E+02 0.  0.
<mgrwt>
<rscale>  0 0.66985669E+02</rscale>
<asrwt>0</asrwt>
<pdfrwt beam="1">  1       13 0.10000000E+01 0.66985669E+02</pdfrwt>
<pdfrwt beam="2">  1       22 0.56354769E+00 0.66985669E+02</pdfrwt>
<totfact> 0.58354953E-02</totfact>
</mgrwt>
</event>
<event>
 4    1  0.2486873E+000  0.6385764E+02  0.7957747E-01  0.1382321E+00
         13   -1    0    0    0    0  0.00000000000E+00  0.00000000000E+00  0.99999944180E+02  0.10000000000E+03  0.10566000000E+00 0.  1.
         22   -1    0    0    0    0 -0.00000000000E+00 -0.00000000000E+00 -0.63502264316E+02  0.63502264316E+02  0.00000000000E+00 0. -1.
         13    1    1    2    0    0 -0.10804103503E+02  0.38223937676E+02 -0.44962919299E+02  0.59995611005E+02  0.10566000000E+00 0. -1.
        996    1    1    2    0    0  0.10804103503E+02 -0.38223937676E+02  0.81460599162E+02  0.10350665331E+03  0.50000000000E+02 0.  0.
<mgrwt>
<rscale>  0 0.63857639E+02</rscale>
<asrwt>0</asrwt>
<pdfrwt beam="1">  1       13 0.10000000E+01 0.63857639E+02</pdfrwt>
<pdfrwt beam="2">  1       22 0.63502275E+00 0.63857639E+02</pdfrwt>
<totfact> 0.81288040E-02</totfact>
</mgrwt>
</event>
<event>
 4    1  0.2486873E+000  0.5116976E+02  0.7957747E-01  0.1439132E+00
         13   -1    0    0    0    0  0.00000000000E+00  0.00000000000E+00  0.99999944171E+02  0.99999999991E+02  0.10566000000E+00 0. -1.
         22   -1    0    0    0    0 -0.00000000000E+00 -0.00000000000E+00 -0.40966030924E+02  0.40966030924E+02  0.00000000000E+00 0.  1.
         13    1    1    2    0    0 -0.16304417528E+01 -0.10755727639E+02 -0.33502286881E+02  0.35224400743E+02  0.10566000000E+00 0.  1.
        996    1    1    2    0    0  0.16304417528E+01  0.10755727639E+02  0.92536200128E+02  0.10574163017E+03  0.50000000000E+02 0.  0.
<mgrwt>
<rscale>  0 0.51169757E+02</rscale>
<asrwt>0</asrwt>
<pdfrwt beam="1">  1       13 0.10000000E+01 0.51169757E+02</pdfrwt>
<pdfrwt beam="2">  1       22 0.40966047E+00 0.51169757E+02</pdfrwt>
<totfact> 0.11803731E-01</totfact>
</mgrwt>
</event>
<event>
 4    1  0.2486873E+000  0.5214652E+02  0.7957747E-01  0.1434096E+00
         13   -1    0    0    0    0  0.00000000000E+00  0.00000000000E+00  0.99999944182E+02  0.10000000000E+03  0.10566000000E+00 0.  1.
         22   -1    0    0    0    0 -0.00000000000E+00 -0.00000000000E+00 -0.12205794040E+02  0.12205794040E+02  0.00000000000E+00 0.  1.
         13    1    1    2    0    0 -0.11960815398E+02 -0.87291705313E+01  0.34983574592E+02  0.37988434798E+02  0.10566000000E+00 0. -1.
        996    1    1    2    0    0  0.11960815398E+02  0.87291705313E+01  0.52810575551E+02  0.74217359244E+02  0.50000000000E+02 0.  0.
<mgrwt>
<rscale>  0 0.52146520E+02</rscale>
<asrwt>0</asrwt>
<pdfrwt beam="1">  1       13 0.10000000E+01 0.52146520E+02</pdfrwt>
<pdfrwt beam="2">  1       22 0.12205819E+00 0.52146520E+02</pdfrwt>
<totfact> 0.10475625E+00</totfact>
</mgrwt>
</event>
<event>
 4    1  0.2486873E+000  0.6359793E+02  0.7957747E-01  0.1383324E+00
         13   -1    0    0    0    0  0.00000000000E+00  0.00000000000E+00  0.99999944179E+02  0.99999999999E+02  0.10566000000E+00 0. -1.
         22   -1    0    0    0    0 -0.00000000000E+00 -0.00000000000E+00 -0.27386527702E+02  0.27386527702E+02  0.00000000000E+00 0. -1.
         13    1    1    2    0    0  0.38563688343E+02  0.75854481756E+01  0.39346229592E+02  0.55613254083E+02  0.10566000000E+00 0.  1.
        996    1    1    2    0    0 -0.38563688343E+02 -0.75854481756E+01  0.33267186884E+02  0.71773273618E+02  0.50000000000E+02 0.  0.
<mgrwt>
<rscale>  0 0.63597933E+02</rscale>
<asrwt>0</asrwt>
<pdfrwt beam="1">  1       13 0.10000000E+01 0.63597933E+02</pdfrwt>
<pdfrwt beam="2">  1       22 0.27386548E+00 0.63597933E+02</pdfrwt>
<totfact> 0.25024686E-01</totfact>
</mgrwt>
</event>
<event>
 4    1  0.2486873E+000  0.5296757E+02  0.7957747E-01  0.1429962E+00
         13   -1    0    0    0    0  0.00000000000E+00  0.00000000000E+00  0.99999944177E+02  0.99999999997E+02  0.10566000000E+00 0. -1.
         22   -1    0    0    0    0 -0.00000000000E+00 -0.00000000000E+00 -0.12532367266E+02  0.12532367266E+02  0.00000000000E+00 0. -1.
         13    1    1    2    0    0 -0.91332861945E+01  0.14904584908E+02  0.17061031961E+02  0.24426492658E+02  0.10566000000E+00 0.  1.
        996    1    1    2    0    0  0.91332861945E+01 -0.14904584908E+02  0.70406544951E+02  0.88105874605E+02  0.50000000000E+02 0.  0.
<mgrwt>
<rscale>  0 0.52967571E+02</rscale>
<asrwt>0</asrwt>
<pdfrwt beam="1">  1       13 0.10000000E+01 0.52967571E+02</pdfrwt>
<pdfrwt beam="2">  1       22 0.12532392E+00 0.52967571E+02</pdfrwt>
<totfact> 0.10074042E+00</totfact>
</mgrwt>
</event>
<event>
 4    1  0.2486873E+000  0.6234447E+02  0.7957747E-01  0.1388248E+00
         13   -1    0    0    0    0  0.00000000000E+00  0.00000000000E+00  0.99999944181E+02  0.10000000000E+03  0.10566000000E+00 0.  1.
         22   -1    0    0    0    0 -0.00000000000E+00 -0.00000000000E+00 -0.33030068975E+02  0.33030068975E+02  0.00000000000E+00 0. -1.
         13    1    1    2    0    0  0.11301618099E+02  0.35483886769E+02 -0.52658612934E+01  0.37610812955E+02  0.10566000000E+00 0. -1.
        996    1    1    2    0    0 -0.11301618099E+02 -0.35483886769E+02  0.72235736500E+02  0.95419256021E+02  0.50000000000E+02 0.  0.
<mgrwt>
<rscale>  0 0.62344469E+02</rscale>
<asrwt>0</asrwt>
<pdfrwt beam="1">  1       13 0.10000000E+01 0.62344469E+02</pdfrwt>
<pdfrwt beam="2">  1       22 0.33030088E+00 0.62344469E+02</pdfrwt>
<totfact> 0.17579335E-01</totfact>
</mgrwt>
</event>
<event>
 4    1  0.2486873E+000  0.5247369E+02  0.7957747E-01  0.1432438E+00
         13   -1    0    0    0    0  0.00000000000E+00  0.00000000000E+00  0.99999944186E+02  0.10000000001E+03  0.10566000000E+00 0. -1.
         22   -1    0    0    0    0 -0.00000000000E+00 -0.00000000000E+00 -0.34534975983E+02  0.34534975983E+02  0.00000000000E+00 0.  1.
         13    1    1    2    0    0 -0.10077421060E+02 -0.12326126811E+02 -0.25183362691E+02  0.29794307138E+02  0.10566000000E+00 0.  1.
        996    1    1    2    0    0  0.10077421060E+02  0.12326126811E+02  0.90648330895E+02  0.10474066885E+03  0.50000000000E+02 0.  0.
<mgrwt>
<rscale>  0 0.52473687E+02</rscale>
<asrwt>0</asrwt>
<pdfrwt beam="1">  1       13 0.10000000E+01 0.52473687E+02</pdfrwt>
<pdfrwt beam="2">  1       22 0.34534994E+00 0.52473687E+02</pdfrwt>
<totfact> 0.16093131E-01</totfact>
</mgrwt>
</event>
<event>
 4    1  0.2486873E+000  0.5434887E+02  0.7957747E-01  0.1423203E+00
         13   -1    0    0    0    0  0.00000000000E+00  0.00000000000E+00  0.99999944180E+02  0.10000000000E+03  0.10566000000E+00 0.  1.
         22   -1    0    0    0    0 -0.00000000000E+00 -0.00000000000E+00 -0.14359319173E+02  0.14359319173E+02  0.00000000000E+00 0.  1.
         13    1    1    2    0    0  0.18028128150E+02  0.11348396488E+02  0.27261049597E+02  0.34597333663E+02  0.10566000000E+00 0. -1.
        996    1    1    2    0    0 -0.18028128150E+02 -0.11348396488E+02  0.58379575410E+02  0.79761985510E+02  0.50000000000E+02 0.  0.
<mgrwt>
<rscale>  0 0.54348869E+02</rscale>
<asrwt>0</asrwt>
<pdfrwt beam="1">  1       13 0.10000000E+01 0.54348869E+02</pdfrwt>
<pdfrwt beam="2">  1       22 0.14359343E+00 0.54348869E+02</pdfrwt>
<totfact> 0.81305042E-01</totfact>
</mgrwt>
</event>
<event>
 4    1  0.2486873E+000  0.5172214E+02  0.7957747E-01  0.1436268E+00
         13   -1    0    0    0    0  0.00000000000E+00  0.00000000000E+00  0.99999944179E+02  0.10000000000E+03  0.10566000000E+00 0. -1.
         22   -1    0    0    0    0 -0.00000000000E+00 -0.00000000000E+00 -0.15886800745E+02  0.15886800745E+02  0.00000000000E+00 0.  1.
         13    1    1    2    0    0 -0.13015214785E+02  0.24050802633E+01 -0.39021684284E+01  0.13799214088E+02  0.10566000000E+00 0.  1.
        996    1    1    2    0    0  0.13015214785E+02 -0.24050802633E+01  0.88015311863E+02  0.10208758666E+03  0.50000000000E+02 0.  0.
<mgrwt>
<rscale>  0 0.51722144E+02</rscale>
<asrwt>0</asrwt>
<pdfrwt beam="1">  1       13 0.10000000E+01 0.51722144E+02</pdfrwt>
<pdfrwt beam="2">  1       22 0.15886824E+00 0.51722144E+02</pdfrwt>
<totfact> 0.68310183E-01</totfact>
</mgrwt>
</event>
<event>
 4    1  0.2486873E+000  0.5290942E+02  0.7957747E-01  0.1430252E+00
         13   -1    0    0    0    0  0.00000000000E+00  0.00000000000E+00  0.99999944183E+02  0.10000000000E+03  0.10566000000E+00 0.  1.
         22   -1    0    0    0    0 -0.00000000000E+00 -0.00000000000E+00 -0.48908711306E+02  0.48908711306E+02  0.00000000000E+00 0. -1.
         13    1    1    2    0    0  0.45786833564E+01  0.16686606585E+02 -0.39991024274E+02  0.43574079073E+02  0.10566000000E+00 0. -1.
        996    1    1    2    0    0 -0.45786833564E+01 -0.16686606585E+02  0.91082257150E+02  0.10533463224E+03  0.50000000000E+02 0.  0.
<mgrwt>
<rscale>  0 0.52909424E+02</rscale>
<asrwt>0</asrwt>
<pdfrwt beam="1">  1       13 0.10000000E+01 0.52909424E+02</pdfrwt>
<pdfrwt beam="2">  1       22 0.48908726E+00 0.52909424E+02</pdfrwt>
<totfact> 0.78248939E-02</totfact>
</mgrwt>
</event>
<event>
 4    1  0.2486873E+000  0.5675954E+02  0.7957747E-01  0.1411956E+00
         13   -1    0    0    0    0  0.00000000000E+00  0.00000000000E+00  0.99999944185E+02  0.10000000000E+03  0.10566000000E+00 0. -1.
         22   -1    0    0    0    0 -0.00000000000E+00 -0.00000000000E+00 -0.19437896709E+02  0.19437896709E+02  0.00000000000E+00 0.  1.
         13    1    1    2    0    0 -0.25657436709E+02 -0.79587176679E+01  0.95081311479E+01  0.28496683445E+02  0.10566000000E+00 0.  1.
        996    1    1    2    0    0  0.25657436709E+02  0.79587176679E+01  0.71053916327E+02  0.90941213269E+02  0.50000000000E+02 0.  0.
<mgrwt>
<rscale>  0 0.56759539E+02</rscale>
<asrwt>0</asrwt>
<pdfrwt beam="1">  1       13 0.10000000E+01 0.56759539E+02</pdfrwt>
<pdfrwt beam="2">  1       22 0.19437919E+00 0.56759539E+02</pdfrwt>
<totfact> 0.48166018E-01</totfact>
</mgrwt>
</event>
<event>
 4    1  0.2486873E+000  0.5139984E+02  0.7957747E-01  0.1437934E+00
         13   -1    0    0    0    0  0.00000000000E+00  0.00000000000E+00  0.99999944182E+02  0.10000000000E+03  0.10566000000E+00 0.  1.
         22   -1    0    0    0    0 -0.00000000000E+00 -0.00000000000E+00 -0.10140138916E+02  0.10140138916E+02  0.00000000000E+00 0.  1.
         13    1    1    2    0    0 -0.59120327581E+01  0.10343689007E+02  0.21905986466E+02  0.24936468088E+02  0.10566000000E+00 0. -1.
        996    1    1    2    0    0  0.59120327581E+01 -0.10343689007E+02  0.67953818800E+02  0.85203670831E+02  0.50000000000E+02 0.  0.
<mgrwt>
<rscale>  0 0.51399845E+02</rscale>
<asrwt>0</asrwt>
<pdfrwt beam="1">  1       13 0.10000000E+01 0.51399845E+02</pdfrwt>
<pdfrwt beam="2">  1       22 0.10140164E+00 0.51399845E+02</pdfrwt>
<totfact> 0.13796057E+00</totfact>
</mgrwt>
</event>
<event>
 4    1  0.2486873E+000  0.5480115E+02  0.7957747E-01  0.1421042E+00
         13   -1    0    0    0    0  0.00000000000E+00  0.00000000000E+00  0.99999944181E+02  0.10000000000E+03  0.10566000000E+00 0.  1.
         22   -1    0    0    0    0 -0.00000000000E+00 -0.00000000000E+00 -0.15735650395E+02  0.15735650395E+02  0.00000000000E+00 0.  1.
         13    1    1    2    0    0  0.22417088892E+02  0.80013684040E+00  0.37483483998E+02  0.43682820766E+02  0.10566000000E+00 0. -1.
        996    1    1    2    0    0 -0.22417088892E+02 -0.80013684040E+00  0.46780809788E+02  0.72052829631E+02  0.50000000000E+02 0.  0.
<mgrwt>
<rscale>  0 0.54801150E+02</rscale>
<asrwt>0</asrwt>
<pdfrwt beam="1">  1       13 0.10000000E+01 0.54801150E+02</pdfrwt>
<pdfrwt beam="2">  1       22 0.15735674E+00 0.54801150E+02</pdfrwt>
<totfact> 0.69848743E-01</totfact>
</mgrwt>
</event>
<event>
 4    1  0.2486873E+000  0.5161327E+02  0.7957747E-01  0.1436829E+00
         13   -1    0    0    0    0  0.00000000000E+00  0.00000000000E+00  0.99999944178E+02  0.99999999998E+02  0.10566000000E+00 0.  1.
         22   -1    0    0    0    0 -0.00000000000E+00 -0.00000000000E+00 -0.12013295676E+02  0.12013295676E+02  0.00000000000E+00 0.  1.
         13    1    1    2    0    0  0.32483135993E+01 -0.12384603995E+02  0.39626153955E+01  0.13403113152E+02  0.10566000000E+00 0. -1.
        996    1    1    2    0    0 -0.32483135993E+01  0.12384603995E+02  0.84024033107E+02  0.98610182521E+02  0.50000000000E+02 0.  0.
<mgrwt>
<rscale>  0 0.51613273E+02</rscale>
<asrwt>0</asrwt>
<pdfrwt beam="1">  1       13 0.10000000E+01 0.51613273E+02</pdfrwt>
<pdfrwt beam="2">  1       22 0.12013320E+00 0.51613273E+02</pdfrwt>
<totfact> 0.10721869E+00</totfact>
</mgrwt>
</event>
<event>
 4    1  0.2486873E+000  0.5577715E+02  0.7957747E-01  0.1416459E+00
         13   -1    0    0    0    0  0.00000000000E+00  0.00000000000E+00  0.99999944184E+02  0.10000000000E+03  0.10566000000E+00 0. -1.
         22   -1    0    0    0    0 -0.00000000000E+00 -0.00000000000E+00 -0.20645539097E+02  0.20645539097E+02  0.00000000000E+00 0.  1.
         13    1    1    2    0    0  0.24414484485E+02  0.38760362527E+01  0.13584210240E+01  0.24757770122E+02  0.10566000000E+00 0.  1.
        996    1    1    2    0    0 -0.24414484485E+02 -0.38760362527E+01  0.77995984063E+02  0.95887768978E+02  0.50000000000E+02 0.  0.
<mgrwt>
<rscale>  0 0.55777152E+02</rscale>
<asrwt>0</asrwt>
<pdfrwt beam="1">  1       13 0.10000000E+01 0.55777152E+02</pdfrwt>
<pdfrwt beam="2">  1       22 0.20645561E+00 0.55777152E+02</pdfrwt>
<totfact> 0.42962139E-01</totfact>
</mgrwt>
</event>
<event>
 4    1  0.2486873E+000  0.5130377E+02  0.7957747E-01  0.1438434E+00
         13   -1    0    0    0    0  0.00000000000E+00  0.00000000000E+00  0.99999944180E+02  0.10000000000E+03  0.10566000000E+00 0. -1.
         22   -1    0    0    0    0 -0.00000000000E+00 -0.00000000000E+00 -0.14365242583E+02  0.14365242583E+02  0.00000000000E+00 0.  1.
         13    1    1    2    0    0 -0.80284222917E+01  0.82232411361E+01 -0.30672084826E+01  0.11895217156E+02  0.10566000000E+00 0.  1.
        996    1    1    2    0    0  0.80284222917E+01 -0.82232411361E+01  0.88701910080E+02  0.10247002543E+03  0.50000000000E+02 0.  0.
<mgrwt>
<rscale>  0 0.51303774E+02</rscale>
<asrwt>0</asrwt>
<pdfrwt beam="1">  1       13 0.10000000E+01 0.51303774E+02</pdfrwt>
<pdfrwt beam="2">  1       22 0.14365266E+00 0.51303774E+02</pdfrwt>
<totfact> 0.80745623E-01</totfact>
</mgrwt>
</event>
<event>
 4    1  0.2486873E+000  0.5230938E+02  0.7957747E-01  0.1433269E+00
         13   -1    0    0    0    0  0.00000000000E+00  0.00000000000E+00  0.99999944170E+02  0.99999999990E+02  0.10566000000E+00 0. -1.
         22   -1    0    0    0    0 -0.00000000000E+00 -0.00000000000E+00 -0.12195579167E+02  0.12195579167E+02  0.00000000000E+00 0.  1.
         13    1    1    2    0    0  0.48964245533E+01  0.14570376196E+02  0.96448756292E+01  0.18146780041E+02  0.10566000000E+00 0.  1.
        996    1    1    2    0    0 -0.48964245533E+01 -0.14570376196E+02  0.78159489374E+02  0.94048799116E+02  0.50000000000E+02 0.  0.
<mgrwt>
<rscale>  0 0.52309376E+02</rscale>
<asrwt>0</asrwt>
<pdfrwt beam="1">  1       13 0.10000000E+01 0.52309376E+02</pdfrwt>
<pdfrwt beam="2">  1       22 0.12195604E+00 0.52309376E+02</pdfrwt>
<totfact> 0.10492924E+00</totfact>
</mgrwt>
</event>
<event>
 4    1  0.2486873E+000  0.5143506E+02  0.7957747E-01  0.1437751E+00
         13   -1    0    0    0    0  0.00000000000E+00  0.00000000000E+00  0.99999944184E+02  0.10000000000E+03  0.10566000000E+00 0. -1.
         22   -1    0    0    0    0 -0.00000000000E+00 -0.00000000000E+00 -0.10483220361E+02  0.10483220361E+02  0.00000000000E+00 0. -1.
         13    1    1    2    0    0  0.12061709533E+02  0.28460198830E+00  0.26667380988E+02  0.29269885684E+02  0.10566000000E+00 0.  1.
        996    1    1    2    0    0 -0.12061709533E+02 -0.28460198830E+00  0.62849342835E+02  0.81213334681E+02  0.50000000000E+02 0.  0.
<mgrwt>
<rscale>  0 0.51435064E+02</rscale>
<asrwt>0</asrwt>
<pdfrwt beam="1">  1       13 0.10000000E+01 0.51435064E+02</pdfrwt>
<pdfrwt beam="2">  1       22 0.10483245E+00 0.51435064E+02</pdfrwt>
<totfact> 0.13142883E+00</totfact>
</mgrwt>
</event>
<event>
 4    1  0.2486873E+000  0.5177626E+02  0.7957747E-01  0.1435990E+00
         13   -1    0    0    0    0  0.00000000000E+00  0.00000000000E+00  0.99999944175E+02  0.99999999996E+02  0.10566000000E+00 0. -1.
         22   -1    0    0    0    0 -0.00000000000E+00 -0.00000000000E+00 -0.11935152806E+02  0.11935152806E+02  0.00000000000E+00 0. -1.
         13    1    1    2    0    0 -0.11142113183E+02 -0.75255540996E+01  0.56039983016E+01  0.14566969887E+02  0.10566000000E+00 0.  1.
        996    1    1    2    0    0  0.11142113183E+02  0.75255540996E+01  0.82460793068E+02  0.97368182915E+02  0.50000000000E+02 0.  0.
<mgrwt>
<rscale>  0 0.51776256E+02</rscale>
<asrwt>0</asrwt>
<pdfrwt beam="1">  1       13 0.10000000E+01 0.51776256E+02</pdfrwt>
<pdfrwt beam="2">  1       22 0.11935177E+00 0.51776256E+02</pdfrwt>
<totfact> 0.10833462E+00</totfact>
</mgrwt>
</event>
<event>
 4    1  0.2486873E+000  0.5291191E+02  0.7957747E-01  0.1430240E+00
         13   -1    0    0    0    0  0.00000000000E+00  0.00000000000E+00  0.99999944174E+02  0.99999999994E+02  0.10566000000E+00 0. -1.
         22   -1    0    0    0    0 -0.00000000000E+00 -0.00000000000E+00 -0.12336775716E+02  0.12336775716E+02  0.00000000000E+00 0. -1.
         13    1    1    2    0    0  0.13804708360E+02 -0.10445112974E+02  0.20351437069E+02  0.26718205643E+02  0.10566000000E+00 0.  1.
        996    1    1    2    0    0 -0.13804708360E+02  0.10445112974E+02  0.67311731388E+02  0.85618570068E+02  0.50000000000E+02 0.  0.
<mgrwt>
<rscale>  0 0.52911911E+02</rscale>
<asrwt>0</asrwt>
<pdfrwt beam="1">  1       13 0.10000000E+01 0.52911911E+02</pdfrwt>
<pdfrwt beam="2">  1       22 0.12336800E+00 0.52911911E+02</pdfrwt>
<totfact> 0.10321687E+00</totfact>
</mgrwt>
</event>
<event>
 4    1  0.2486873E+000  0.5244751E+02  0.7957747E-01  0.1432570E+00
         13   -1    0    0    0    0  0.00000000000E+00  0.00000000000E+00  0.99999944178E+02  0.99999999998E+02  0.10566000000E+00 0. -1.
         22   -1    0    0    0    0 -0.00000000000E+00 -0.00000000000E+00 -0.38363492957E+02  0.38363492957E+02  0.00000000000E+00 0.  1.
         13    1    1    2    0    0 -0.90585652942E+01  0.12987824158E+02 -0.29346478497E+02  0.33346186375E+02  0.10566000000E+00 0.  1.
        996    1    1    2    0    0  0.90585652942E+01 -0.12987824158E+02  0.90982929717E+02  0.10501730658E+03  0.50000000000E+02 0.  0.
<mgrwt>
<rscale>  0 0.52447509E+02</rscale>
<asrwt>0</asrwt>
<pdfrwt beam="1">  1       13 0.10000000E+01 0.52447509E+02</pdfrwt>
<pdfrwt beam="2">  1       22 0.38363510E+00 0.52447509E+02</pdfrwt>
<totfact> 0.13367907E-01</totfact>
</mgrwt>
</event>
<event>
 4    1  0.2486873E+000  0.5178040E+02  0.7957747E-01  0.1435968E+00
         13   -1    0    0    0    0  0.00000000000E+00  0.00000000000E+00  0.99999944178E+02  0.99999999998E+02  0.10566000000E+00 0.  1.
         22   -1    0    0    0    0 -0.00000000000E+00 -0.00000000000E+00 -0.16731895856E+02  0.16731895856E+02  0.00000000000E+00 0. -1.
         13    1    1    2    0    0 -0.24777577298E+00  0.13459135471E+02 -0.50301023596E+01  0.14370901650E+02  0.10566000000E+00 0. -1.
        996    1    1    2    0    0  0.24777577298E+00 -0.13459135471E+02  0.88298150682E+02  0.10236099420E+03  0.50000000000E+02 0.  0.
<mgrwt>
<rscale>  0 0.51780399E+02</rscale>
<asrwt>0</asrwt>
<pdfrwt beam="1">  1       13 0.10000000E+01 0.51780399E+02</pdfrwt>
<pdfrwt beam="2">  1       22 0.16731919E+00 0.51780399E+02</pdfrwt>
<totfact> 0.62483283E-01</totfact>
</mgrwt>
</event>
<event>
 4    1  0.2486873E+000  0.5184058E+02  0.7957747E-01  0.1435659E+00
         13   -1    0    0    0    0  0.00000000000E+00  0.00000000000E+00  0.99999944181E+02  0.10000000000E+03  0.10566000000E+00 0. -1.
         22   -1    0    0    0    0 -0.00000000000E+00 -0.00000000000E+00 -0.13513754416E+02  0.13513754416E+02  0.00000000000E+00 0. -1.
         13    1    1    2    0    0  0.12807752161E+02  0.48380661753E+01  0.12469254692E+01  0.13748141216E+02  0.10566000000E+00 0.  1.
        996    1    1    2    0    0 -0.12807752161E+02 -0.48380661753E+01  0.85239264296E+02  0.99765613202E+02  0.50000000000E+02 0.  0.
<mgrwt>
<rscale>  0 0.51840577E+02</rscale>
<asrwt>0</asrwt>
<pdfrwt beam="1">  1       13 0.10000000E+01 0.51840577E+02</pdfrwt>
<pdfrwt beam="2">  1       22 0.13513779E+00 0.51840577E+02</pdfrwt>
<totfact> 0.89233948E-01</totfact>
</mgrwt>
</event>
<event>
 4    1  0.2486873E+000  0.6076237E+02  0.7957747E-01  0.1394660E+00
         13   -1    0    0    0    0  0.00000000000E+00  0.00000000000E+00  0.99999944192E+02  0.10000000001E+03  0.10566000000E+00 0. -1.
         22   -1    0    0    0    0 -0.00000000000E+00 -0.00000000000E+00 -0.23206993069E+02  0.23206993069E+02  0.00000000000E+00 0.  1.
         13    1    1    2    0    0  0.33842989361E+02  0.68350616041E+01  0.19293532797E+02  0.39551454687E+02  0.10566000000E+00 0.  1.
        996    1    1    2    0    0 -0.33842989361E+02 -0.68350616041E+01  0.57499418326E+02  0.83655538393E+02  0.50000000000E+02 0.  0.
<mgrwt>
<rscale>  0 0.60762373E+02</rscale>
<asrwt>0</asrwt>
<pdfrwt beam="1">  1       13 0.10000000E+01 0.60762373E+02</pdfrwt>
<pdfrwt beam="2">  1       22 0.23207015E+00 0.60762373E+02</pdfrwt>
<totfact> 0.34562807E-01</totfact>
</mgrwt>
</event>
<event>
 4    1  0.2486873E+000  0.5223407E+02  0.7957747E-01  0.1433651E+00
         13   -1    0    0    0    0  0.00000000000E+00  0.00000000000E+00  0.99999944182E+02  0.10000000000E+03  0.10566000000E+00 0. -1.
         22   -1    0    0    0    0 -0.00000000000E+00 -0.00000000000E+00 -0.18328447599E+02  0.18328447599E+02  0.00000000000E+00 0. -1.
         13    1    1    2    0    0  0.55485879681E+01  0.14057425958E+02 -0.60125343711E+01  0.16265293929E+02  0.10566000000E+00 0.  1.
        996    1    1    2    0    0 -0.55485879681E+01 -0.14057425958E+02  0.87684030954E+02  0.10206315367E+03  0.50000000000E+02 0.  0.
<mgrwt>
<rscale>  0 0.52234070E+02</rscale>
<asrwt>0</asrwt>
<pdfrwt beam="1">  1       13 0.10000000E+01 0.52234070E+02</pdfrwt>
<pdfrwt beam="2">  1       22 0.18328470E+00 0.52234070E+02</pdfrwt>
<totfact> 0.53204911E-01</totfact>
</mgrwt>
</event>
<event>
 4    1  0.2486873E+000  0.5432051E+02  0.7957747E-01  0.1423340E+00
         13   -1    0    0    0    0  0.00000000000E+00  0.00000000000E+00  0.99999944182E+02  0.10000000000E+03  0.10566000000E+00 0. -1.
         22   -1    0    0    0    0 -0.00000000000E+00 -0.00000000000E+00 -0.35568633305E+02  0.35568633305E+02  0.00000000000E+00 0.  1.
         13    1    1    2    0    0  0.62557861578E+01  0.20287510576E+02 -0.23839654397E+02  0.31922691485E+02  0.10566000000E+00 0.  1.
        996    1    1    2    0    0 -0.62557861578E+01 -0.20287510576E+02  0.88270965274E+02  0.10364594182E+03  0.50000000000E+02 0.  0.
<mgrwt>
<rscale>  0 0.54320511E+02</rscale>
<asrwt>0</asrwt>
<pdfrwt beam="1">  1       13 0.10000000E+01 0.54320511E+02</pdfrwt>
<pdfrwt beam="2">  1       22 0.35568651E+00 0.54320511E+02</pdfrwt>
<totfact> 0.15313923E-01</totfact>
</mgrwt>
</event>
<event>
 4    1  0.2486873E+000  0.5203277E+02  0.7957747E-01  0.1434676E+00
         13   -1    0    0    0    0  0.00000000000E+00  0.00000000000E+00  0.99999944177E+02  0.99999999997E+02  0.10566000000E+00 0. -1.
         22   -1    0    0    0    0 -0.00000000000E+00 -0.00000000000E+00 -0.13413321858E+02  0.13413321858E+02  0.00000000000E+00 0. -1.
         13    1    1    2    0    0  0.27082171044E+01 -0.14144773837E+02  0.26300392380E+01  0.14640264247E+02  0.10566000000E+00 0.  1.
        996    1    1    2    0    0 -0.27082171044E+01  0.14144773837E+02  0.83956583081E+02  0.98773057609E+02  0.50000000000E+02 0.  0.
<mgrwt>
<rscale>  0 0.52032769E+02</rscale>
<asrwt>0</asrwt>
<pdfrwt beam="1">  1       13 0.10000000E+01 0.52032769E+02</pdfrwt>
<pdfrwt beam="2">  1       22 0.13413346E+00 0.52032769E+02</pdfrwt>
<totfact> 0.90339755E-01</totfact>
</mgrwt>
</event>
<event>
 4    1  0.2486873E+000  0.5867983E+02  0.7957747E-01  0.1403457E+00
         13   -1    0    0    0    0  0.00000000000E+00  0.00000000000E+00  0.99999944186E+02  0.10000000001E+03  0.10566000000E+00 0. -1.
         22   -1    0    0    0    0 -0.00000000000E+00 -0.00000000000E+00 -0.34155958538E+02  0.34155958538E+02  0.00000000000E+00 0.  1.
         13    1    1    2    0    0 -0.30353513279E+01  0.30563201172E+02 -0.15063853192E+02  0.34208967546E+02  0.10566000000E+00 0.  1.
        996    1    1    2    0    0  0.30353513279E+01 -0.30563201172E+02  0.80907838840E+02  0.99946990997E+02  0.50000000000E+02 0.  0.
<mgrwt>
<rscale>  0 0.58679831E+02</rscale>
<asrwt>0</asrwt>
<pdfrwt beam="1">  1       13 0.10000000E+01 0.58679831E+02</pdfrwt>
<pdfrwt beam="2">  1       22 0.34155977E+00 0.58679831E+02</pdfrwt>
<totfact> 0.16509784E-01</totfact>
</mgrwt>
</event>
<event>
 4    1  0.2486873E+000  0.5172435E+02  0.7957747E-01  0.1436257E+00
         13   -1    0    0    0    0  0.00000000000E+00  0.00000000000E+00  0.99999944181E+02  0.10000000000E+03  0.10566000000E+00 0.  1.
         22   -1    0    0    0    0 -0.00000000000E+00 -0.00000000000E+00 -0.10592704751E+02  0.10592704751E+02  0.00000000000E+00 0. -1.
         13    1    1    2    0    0  0.49238263776E+01  0.12294877475E+02  0.15575689255E+02  0.20445570135E+02  0.10566000000E+00 0. -1.
        996    1    1    2    0    0 -0.49238263776E+01 -0.12294877475E+02  0.73831550175E+02  0.90147134616E+02  0.50000000000E+02 0.  0.
<mgrwt>
<rscale>  0 0.51724347E+02</rscale>
<asrwt>0</asrwt>
<pdfrwt beam="1">  1       13 0.10000000E+01 0.51724347E+02</pdfrwt>
<pdfrwt beam="2">  1       22 0.10592730E+00 0.51724347E+02</pdfrwt>
<totfact> 0.12952655E+00</totfact>
</mgrwt>
</event>
<event>
 4    1  0.2486873E+000  0.5478854E+02  0.7957747E-01  0.1421102E+00
         13   -1    0    0    0    0  0.00000000000E+00  0.00000000000E+00  0.99999944187E+02  0.10000000001E+03  0.10566000000E+00 0.  1.
         22   -1    0    0    0    0 -0.00000000000E+00 -0.00000000000E+00 -0.39454415919E+02  0.39454415919E+02  0.00000000000E+00 0. -1.
         13    1    1    2    0    0  0.22398294148E+02  0.31729930180E+00 -0.27675293009E+02  0.35605017438E+02  0.10566000000E+00 0. -1.
        996    1    1    2    0    0 -0.22398294148E+02 -0.31729930180E+00  0.88220821277E+02  0.10384939849E+03  0.50000000000E+02 0.  0.
<mgrwt>
<rscale>  0 0.54788541E+02</rscale>
<asrwt>0</asrwt>
<pdfrwt beam="1">  1       13 0.10000000E+01 0.54788541E+02</pdfrwt>
<pdfrwt beam="2">  1       22 0.39454433E+00 0.54788541E+02</pdfrwt>
<totfact> 0.12719560E-01</totfact>
</mgrwt>
</event>
<event>
 4    1  0.2486873E+000  0.5182555E+02  0.7957747E-01  0.1435737E+00
         13   -1    0    0    0    0  0.00000000000E+00  0.00000000000E+00  0.99999944180E+02  0.10000000000E+03  0.10566000000E+00 0.  1.
         22   -1    0    0    0    0 -0.00000000000E+00 -0.00000000000E+00 -0.10995143784E+02  0.10995143784E+02  0.00000000000E+00 0.  1.
         13    1    1    2    0    0  0.84193093686E+01  0.10723950086E+02  0.11931702254E+02  0.18118072701E+02  0.10566000000E+00 0. -1.
        996    1    1    2    0    0 -0.84193093686E+01 -0.10723950086E+02  0.77073098142E+02  0.92877071083E+02  0.50000000000E+02 0.  0.
<mgrwt>
<rscale>  0 0.51825552E+02</rscale>
<asrwt>0</asrwt>
<pdfrwt beam="1">  1       13 0.10000000E+01 0.51825552E+02</pdfrwt>
<pdfrwt beam="2">  1       22 0.10995169E+00 0.51825552E+02</pdfrwt>
<totfact> 0.12260345E+00</totfact>
</mgrwt>
</event>
<event>
 4    1  0.2486873E+000  0.5427435E+02  0.7957747E-01  0.1423562E+00
         13   -1    0    0    0    0  0.00000000000E+00  0.00000000000E+00  0.99999944176E+02  0.99999999996E+02  0.10566000000E+00 0. -1.
         22   -1    0    0    0    0 -0.00000000000E+00 -0.00000000000E+00 -0.16085192558E+02  0.16085192558E+02  0.00000000000E+00 0.  1.
         13    1    1    2    0    0  0.12652456750E+02 -0.16900309181E+02  0.75988972741E+01  0.22437903557E+02  0.10566000000E+00 0.  1.
        996    1    1    2    0    0 -0.12652456750E+02  0.16900309181E+02  0.76315854344E+02  0.93647288997E+02  0.50000000000E+02 0.  0.
<mgrwt>
<rscale>  0 0.54274350E+02</rscale>
<asrwt>0</asrwt>
<pdfrwt beam="1">  1       13 0.10000000E+01 0.54274350E+02</pdfrwt>
<pdfrwt beam="2">  1       22 0.16085216E+00 0.54274350E+02</pdfrwt>
<totfact> 0.67209583E-01</totfact>
</mgrwt>
</event>
<event>
 4    1  0.2486873E+000  0.5176107E+02  0.7957747E-01  0.1436068E+00
         13   -1    0    0    0    0  0.00000000000E+00  0.00000000000E+00  0.99999944175E+02  0.99999999996E+02  0.10566000000E+00 0.  1.
         22   -1    0    0    0    0 -0.00000000000E+00 -0.00000000000E+00 -0.10927856927E+02  0.10927856927E+02  0.00000000000E+00 0. -1.
         13    1    1    2    0    0 -0.78977457206E+01  0.10808999399E+02  0.11370823985E+02  0.17564613790E+02  0.10566000000E+00 0. -1.
        996    1    1    2    0    0  0.78977457206E+01 -0.10808999399E+02  0.77701263264E+02  0.93363243133E+02  0.50000000000E+02 0.  0.
<mgrwt>
<rscale>  0 0.51761075E+02</rscale>
<asrwt>0</asrwt>
<pdfrwt beam="1">  1       13 0.10000000E+01 0.51761075E+02</pdfrwt>
<pdfrwt beam="2">  1       22 0.10927882E+00 0.51761075E+02</pdfrwt>
<totfact> 0.12370858E+00</totfact>
</mgrwt>
</event>
<event>
 4    1  0.2486873E+000  0.8038387E+02  0.7957747E-01  0.1327966E+00
         13   -1    0    0    0    0  0.00000000000E+00  0.00000000000E+00  0.99999944177E+02  0.99999999997E+02  0.10566000000E+00 0.  1.
         22   -1    0    0    0    0 -0.00000000000E+00 -0.00000000000E+00 -0.69111371442E+02  0.69111371442E+02  0.00000000000E+00 0. -1.
         13    1    1    2    0    0 -0.27286416253E+02  0.56718762209E+02 -0.28575094635E+02  0.69123901046E+02  0.10566000000E+00 0. -1.
        996    1    1    2    0    0  0.27286416253E+02 -0.56718762209E+02  0.59463667370E+02  0.99987470392E+02  0.50000000000E+02 0.  0.
<mgrwt>
<rscale>  0 0.80383870E+02</rscale>
<asrwt>0</asrwt>
<pdfrwt beam="1">  1       13 0.10000000E+01 0.80383870E+02</pdfrwt>
<pdfrwt beam="2">  1       22 0.69111380E+00 0.80383870E+02</pdfrwt>
<totfact> 0.78931204E-02</totfact>
</mgrwt>
</event>
<event>
 4    1  0.2486873E+000  0.5374654E+02  0.7957747E-01  0.1426121E+00
         13   -1    0    0    0    0  0.00000000000E+00  0.00000000000E+00  0.99999944180E+02  0.10000000000E+03  0.10566000000E+00 0.  1.
         22   -1    0    0    0    0 -0.00000000000E+00 -0.00000000000E+00 -0.15881498285E+02  0.15881498285E+02  0.00000000000E+00 0.  1.
         13    1    1    2    0    0  0.15543268384E+02 -0.12128360306E+02  0.51829285304E+01  0.20385392514E+02  0.10566000000E+00 0. -1.
        996    1    1    2    0    0 -0.15543268384E+02  0.12128360306E+02  0.78935517364E+02  0.95496105770E+02  0.50000000000E+02 0.  0.
<mgrwt>
<rscale>  0 0.53746538E+02</rscale>
<asrwt>0</asrwt>
<pdfrwt beam="1">  1       13 0.10000000E+01 0.53746538E+02</pdfrwt>
<pdfrwt beam="2">  1       22 0.15881522E+00 0.53746538E+02</pdfrwt>
<totfact> 0.68621595E-01</totfact>
</mgrwt>
</event>
<event>
 4    1  0.2486873E+000  0.8361709E+02  0.7957747E-01  0.1319089E+00
         13   -1    0    0    0    0  0.00000000000E+00  0.00000000000E+00  0.99999944184E+02  0.10000000000E+03  0.10566000000E+00 0. -1.
         22   -1    0    0    0    0 -0.00000000000E+00 -0.00000000000E+00 -0.78951385045E+02  0.78951385045E+02  0.00000000000E+00 0.  1.
         13    1    1    2    0    0  0.37278729990E+02  0.55696625621E+02 -0.37570826271E+02  0.76833560155E+02  0.10566000000E+00 0.  1.
        996    1    1    2    0    0 -0.37278729990E+02 -0.55696625621E+02  0.58619385410E+02  0.10211782489E+03  0.50000000000E+02 0.  0.
<mgrwt>
<rscale>  0 0.83617090E+02</rscale>
<asrwt>0</asrwt>
<pdfrwt beam="1">  1       13 0.10000000E+01 0.83617090E+02</pdfrwt>
<pdfrwt beam="2">  1       22 0.78951391E+00 0.83617090E+02</pdfrwt>
<totfact> 0.33976563E-02</totfact>
</mgrwt>
</event>
<event>
 4    1  0.2486873E+000  0.5156518E+02  0.7957747E-01  0.1437078E+00
         13   -1    0    0    0    0  0.00000000000E+00  0.00000000000E+00  0.99999944173E+02  0.99999999993E+02  0.10566000000E+00 0. -1.
         22   -1    0    0    0    0 -0.00000000000E+00 -0.00000000000E+00 -0.10999927964E+02  0.10999927964E+02  0.00000000000E+00 0. -1.
         13    1    1    2    0    0  0.62082555204E+01 -0.10973837148E+02  0.30581940375E+02  0.33079204638E+02  0.10566000000E+00 0.  1.
        996    1    1    2    0    0 -0.62082555204E+01  0.10973837148E+02  0.58418075834E+02  0.77920723319E+02  0.50000000000E+02 0.  0.
<mgrwt>
<rscale>  0 0.51565178E+02</rscale>
<asrwt>0</asrwt>
<pdfrwt beam="1">  1       13 0.10000000E+01 0.51565178E+02</pdfrwt>
<pdfrwt beam="2">  1       22 0.10999953E+00 0.51565178E+02</pdfrwt>
<totfact> 0.12245000E+00</totfact>
</mgrwt>
</event>
<event>
 4    1  0.2486873E+000  0.5128912E+02  0.7957747E-01  0.1438510E+00
         13   -1    0    0    0    0  0.00000000000E+00  0.00000000000E+00  0.99999944174E+02  0.99999999994E+02  0.10566000000E+00 0.  1.
         22   -1    0    0    0    0 -0.00000000000E+00 -0.00000000000E+00 -0.98356889400E+01  0.98356889400E+01  0.00000000000E+00 0.  1.
         13    1    1    2    0    0 -0.43469422698E-01 -0.11426818589E+02  0.17085368475E+02  0.20554684445E+02  0.10566000000E+00 0. -1.
        996    1    1    2    0    0  0.43469422698E-01  0.11426818589E+02  0.73078886759E+02  0.89281004489E+02  0.50000000000E+02 0.  0.
<mgrwt>
<rscale>  0 0.51289122E+02</rscale>
<asrwt>0</asrwt>
<pdfrwt beam="1">  1       13 0.10000000E+01 0.51289122E+02</pdfrwt>
<pdfrwt beam="2">  1       22 0.98357141E-01 0.51289122E+02</pdfrwt>
<totfact> 0.14414640E+00</totfact>
</mgrwt>
</event>
<event>
 4    1  0.2486873E+000  0.5101223E+02  0.7957747E-01  0.1439957E+00
         13   -1    0    0    0    0  0.00000000000E+00  0.00000000000E+00  0.99999944175E+02  0.99999999995E+02  0.10566000000E+00 0.  1.
         22   -1    0    0    0    0 -0.00000000000E+00 -0.00000000000E+00 -0.10125400699E+02  0.10125400699E+02  0.00000000000E+00 0.  1.
         13    1    1    2    0    0  0.73782347771E+01  0.69144384412E+01  0.54540640906E+01  0.11489377116E+02  0.10566000000E+00 0. -1.
        996    1    1    2    0    0 -0.73782347771E+01 -0.69144384412E+01  0.84420479385E+02  0.98636023577E+02  0.50000000000E+02 0.  0.
<mgrwt>
<rscale>  0 0.51012232E+02</rscale>
<asrwt>0</asrwt>
<pdfrwt beam="1">  1       13 0.10000000E+01 0.51012232E+02</pdfrwt>
<pdfrwt beam="2">  1       22 0.10125426E+00 0.51012232E+02</pdfrwt>
<totfact> 0.13812269E+00</totfact>
</mgrwt>
</event>
<event>
 4    1  0.2486873E+000  0.6023797E+02  0.7957747E-01  0.1396836E+00
         13   -1    0    0    0    0  0.00000000000E+00  0.00000000000E+00  0.99999944173E+02  0.99999999993E+02  0.10566000000E+00 0. -1.
         22   -1    0    0    0    0 -0.00000000000E+00 -0.00000000000E+00 -0.36524902164E+02  0.36524902164E+02  0.00000000000E+00 0.  1.
         13    1    1    2    0    0 -0.17437200859E+02  0.28715102231E+02 -0.15664876920E+02  0.37067675985E+02  0.10566000000E+00 0.  1.
        996    1    1    2    0    0  0.17437200859E+02 -0.28715102231E+02  0.79139918928E+02  0.99457226173E+02  0.50000000000E+02 0.  0.
<mgrwt>
<rscale>  0 0.60237970E+02</rscale>
<asrwt>0</asrwt>
<pdfrwt beam="1">  1       13 0.10000000E+01 0.60237970E+02</pdfrwt>
<pdfrwt beam="2">  1       22 0.36524920E+00 0.60237970E+02</pdfrwt>
<totfact> 0.14691915E-01</totfact>
</mgrwt>
</event>
<event>
 4    1  0.2486873E+000  0.5549957E+02  0.7957747E-01  0.1417751E+00
         13   -1    0    0    0    0  0.00000000000E+00  0.00000000000E+00  0.99999944183E+02  0.10000000000E+03  0.10566000000E+00 0.  1.
         22   -1    0    0    0    0 -0.00000000000E+00 -0.00000000000E+00 -0.35631832408E+02  0.35631832408E+02  0.00000000000E+00 0. -1.
         13    1    1    2    0    0 -0.97082965604E+01 -0.22044312836E+02 -0.22228426566E+02  0.32776773211E+02  0.10566000000E+00 0. -1.
        996    1    1    2    0    0  0.97082965604E+01  0.22044312836E+02  0.86596538341E+02  0.10285505920E+03  0.50000000000E+02 0.  0.
<mgrwt>
<rscale>  0 0.55499574E+02</rscale>
<asrwt>0</asrwt>
<pdfrwt beam="1">  1       13 0.10000000E+01 0.55499574E+02</pdfrwt>
<pdfrwt beam="2">  1       22 0.35631850E+00 0.55499574E+02</pdfrwt>
<totfact> 0.15283524E-01</totfact>
</mgrwt>
</event>
<event>
 4    1  0.2486873E+000  0.5181301E+02  0.7957747E-01  0.1435801E+00
         13   -1    0    0    0    0  0.00000000000E+00  0.00000000000E+00  0.99999944170E+02  0.99999999990E+02  0.10566000000E+00 0.  1.
         22   -1    0    0    0    0 -0.00000000000E+00 -0.00000000000E+00 -0.10701608799E+02  0.10701608799E+02  0.00000000000E+00 0.  1.
         13    1    1    2    0    0  0.93770902257E+01 -0.98315016545E+01  0.17283842689E+02  0.21984781737E+02  0.10566000000E+00 0. -1.
        996    1    1    2    0    0 -0.93770902257E+01  0.98315016545E+01  0.72014492682E+02  0.88716827052E+02  0.50000000000E+02 0.  0.
<mgrwt>
<rscale>  0 0.51813012E+02</rscale>
<asrwt>0</asrwt>
<pdfrwt beam="1">  1       13 0.10000000E+01 0.51813012E+02</pdfrwt>
<pdfrwt beam="2">  1       22 0.10701634E+00 0.51813012E+02</pdfrwt>
<totfact> 0.12761533E+00</totfact>
</mgrwt>
</event>
<event>
 4    1  0.2486873E+000  0.5128961E+02  0.7957747E-01  0.1438507E+00
         13   -1    0    0    0    0  0.00000000000E+00  0.00000000000E+00  0.99999944184E+02  0.10000000000E+03  0.10566000000E+00 0. -1.
         22   -1    0    0    0    0 -0.00000000000E+00 -0.00000000000E+00 -0.33635975728E+02  0.33635975728E+02  0.00000000000E+00 0.  1.
         13    1    1    2    0    0  0.44250781360E+01  0.10537700881E+02 -0.25768316179E+02  0.28189390542E+02  0.10566000000E+00 0.  1.
        996    1    1    2    0    0 -0.44250781360E+01 -0.10537700881E+02  0.92132284635E+02  0.10544658519E+03  0.50000000000E+02 0.  0.
<mgrwt>
<rscale>  0 0.51289614E+02</rscale>
<asrwt>0</asrwt>
<pdfrwt beam="1">  1       13 0.10000000E+01 0.51289614E+02</pdfrwt>
<pdfrwt beam="2">  1       22 0.33635994E+00 0.51289614E+02</pdfrwt>
<totfact> 0.16830567E-01</totfact>
</mgrwt>
</event>
<event>
 4    1  0.2486873E+000  0.5375896E+02  0.7957747E-01  0.1426061E+00
         13   -1    0    0    0    0  0.00000000000E+00  0.00000000000E+00  0.99999944172E+02  0.99999999992E+02  0.10566000000E+00 0. -1.
         22   -1    0    0    0    0 -0.00000000000E+00 -0.00000000000E+00 -0.16865423652E+02  0.16865423652E+02  0.00000000000E+00 0.  1.
         13    1    1    2    0    0 -0.34794133491E+01 -0.19440140781E+02  0.24344853281E+01  0.19898825937E+02  0.10566000000E+00 0.  1.
        996    1    1    2    0    0  0.34794133491E+01  0.19440140781E+02  0.80700035192E+02  0.96966597707E+02  0.50000000000E+02 0.  0.
<mgrwt>
<rscale>  0 0.53758956E+02</rscale>
<asrwt>0</asrwt>
<pdfrwt beam="1">  1       13 0.10000000E+01 0.53758956E+02</pdfrwt>
<pdfrwt beam="2">  1       22 0.16865447E+00 0.53758956E+02</pdfrwt>
<totfact> 0.61857134E-01</totfact>
</mgrwt>
</event>
<event>
 4    1  0.2486873E+000  0.5311901E+02  0.7957747E-01  0.1429210E+00
         13   -1    0    0    0    0  0.00000000000E+00  0.00000000000E+00  0.99999944174E+02  0.99999999994E+02  0.10566000000E+00 0. -1.
         22   -1    0    0    0    0 -0.00000000000E+00 -0.00000000000E+00 -0.25031991117E+02  0.25031991117E+02  0.00000000000E+00 0.  1.
         13    1    1    2    0    0  0.71534348882E+01 -0.16445588180E+02 -0.13082935874E+02  0.22199175129E+02  0.10566000000E+00 0.  1.
        996    1    1    2    0    0 -0.71534348882E+01  0.16445588180E+02  0.88050888931E+02  0.10283281598E+03  0.50000000000E+02 0.  0.
<mgrwt>
<rscale>  0 0.53119008E+02</rscale>
<asrwt>0</asrwt>
<pdfrwt beam="1">  1       13 0.10000000E+01 0.53119008E+02</pdfrwt>
<pdfrwt beam="2">  1       22 0.25032012E+00 0.53119008E+02</pdfrwt>
<totfact> 0.29456328E-01</totfact>
</mgrwt>
</event>
<event>
 4    1  0.2486873E+000  0.5358139E+02  0.7957747E-01  0.1426929E+00
         13   -1    0    0    0    0  0.00000000000E+00  0.00000000000E+00  0.99999944180E+02  0.10000000000E+03  0.10566000000E+00 0. -1.
         22   -1    0    0    0    0 -0.00000000000E+00 -0.00000000000E+00 -0.16413512983E+02  0.16413512983E+02  0.00000000000E+00 0.  1.
         13    1    1    2    0    0  0.18131954646E+02 -0.64959499226E+01  0.27854234663E+01  0.19461112317E+02  0.10566000000E+00 0.  1.
        996    1    1    2    0    0 -0.18131954646E+02  0.64959499226E+01  0.80801007730E+02  0.96952400666E+02  0.50000000000E+02 0.  0.
<mgrwt>
<rscale>  0 0.53581388E+02</rscale>
<asrwt>0</asrwt>
<pdfrwt beam="1">  1       13 0.10000000E+01 0.53581388E+02</pdfrwt>
<pdfrwt beam="2">  1       22 0.16413536E+00 0.53581388E+02</pdfrwt>
<totfact> 0.64826007E-01</totfact>
</mgrwt>
</event>
<event>
 4    1  0.2486873E+000  0.5238554E+02  0.7957747E-01  0.1432883E+00
         13   -1    0    0    0    0  0.00000000000E+00  0.00000000000E+00  0.99999944181E+02  0.10000000000E+03  0.10566000000E+00 0. -1.
         22   -1    0    0    0    0 -0.00000000000E+00 -0.00000000000E+00 -0.12622732250E+02  0.12622732250E+02  0.00000000000E+00 0. -1.
         13    1    1    2    0    0  0.83226456085E+01 -0.13227933864E+02  0.81052427422E+01  0.17605419285E+02  0.10566000000E+00 0.  1.
        996    1    1    2    0    0 -0.83226456085E+01  0.13227933864E+02  0.79271969189E+02  0.95017312966E+02  0.50000000000E+02 0.  0.
<mgrwt>
<rscale>  0 0.52385539E+02</rscale>
<asrwt>0</asrwt>
<pdfrwt beam="1">  1       13 0.10000000E+01 0.52385539E+02</pdfrwt>
<pdfrwt beam="2">  1       22 0.12622757E+00 0.52385539E+02</pdfrwt>
<totfact> 0.99493993E-01</totfact>
</mgrwt>
</event>
<event>
 4    1  0.2486873E+000  0.5984091E+02  0.7957747E-01  0.1398501E+00
         13   -1    0    0    0    0  0.00000000000E+00  0.00000000000E+00  0.99999944176E+02  0.99999999996E+02  0.10566000000E+00 0.  1.
         22   -1    0    0    0    0 -0.00000000000E+00 -0.00000000000E+00 -0.22322536494E+02  0.22322536494E+02  0.00000000000E+00 0. -1.
         13    1    1    2    0    0 -0.15665191844E+02  0.28905639060E+02  0.16656545297E+02  0.36856286712E+02  0.10566000000E+00 0. -1.
        996    1    1    2    0    0  0.15665191844E+02 -0.28905639060E+02  0.61020862385E+02  0.85466249778E+02  0.50000000000E+02 0.  0.
<mgrwt>
<rscale>  0 0.59840907E+02</rscale>
<asrwt>0</asrwt>
<pdfrwt beam="1">  1       13 0.10000000E+01 0.59840907E+02</pdfrwt>
<pdfrwt beam="2">  1       22 0.22322558E+00 0.59840907E+02</pdfrwt>
<totfact> 0.37229932E-01</totfact>
</mgrwt>
</event>
<event>
 4    1  0.2486873E+000  0.5105629E+02  0.7957747E-01  0.1439726E+00
         13   -1    0    0    0    0  0.00000000000E+00  0.00000000000E+00  0.99999944178E+02  0.99999999998E+02  0.10566000000E+00 0.  1.
         22   -1    0    0    0    0 -0.00000000000E+00 -0.00000000000E+00 -0.94512471688E+01  0.94512471688E+01  0.00000000000E+00 0.  1.
         13    1    1    2    0    0  0.37819552530E+01  0.96146367560E+01  0.17640848812E+02  0.20443951094E+02  0.10566000000E+00 0. -1.
        996    1    1    2    0    0 -0.37819552530E+01 -0.96146367560E+01  0.72907848197E+02  0.89007296073E+02  0.50000000000E+02 0.  0.
<mgrwt>
<rscale>  0 0.51056287E+02</rscale>
<asrwt>0</asrwt>
<pdfrwt beam="1">  1       13 0.10000000E+01 0.51056287E+02</pdfrwt>
<pdfrwt beam="2">  1       22 0.94512724E-01 0.51056287E+02</pdfrwt>
<totfact> 0.15254175E+00</totfact>
</mgrwt>
</event>
<event>
 4    1  0.2486873E+000  0.6538206E+02  0.7957747E-01  0.1376540E+00
         13   -1    0    0    0    0  0.00000000000E+00  0.00000000000E+00  0.99999944180E+02  0.10000000000E+03  0.10566000000E+00 0. -1.
         22   -1    0    0    0    0 -0.00000000000E+00 -0.00000000000E+00 -0.45703335544E+02  0.45703335544E+02  0.00000000000E+00 0.  1.
         13    1    1    2    0    0 -0.10116771469E+02  0.40895773274E+02 -0.20084407864E+02  0.46671275319E+02  0.10566000000E+00 0.  1.
        996    1    1    2    0    0  0.10116771469E+02 -0.40895773274E+02  0.74381016501E+02  0.99032060225E+02  0.50000000000E+02 0.  0.
<mgrwt>
<rscale>  0 0.65382057E+02</rscale>
<asrwt>0</asrwt>
<pdfrwt beam="1">  1       13 0.10000000E+01 0.65382057E+02</pdfrwt>
<pdfrwt beam="2">  1       22 0.45703351E+00 0.65382057E+02</pdfrwt>
<totfact> 0.93757002E-02</totfact>
</mgrwt>
</event>
<event>
 4    1  0.2486873E+000  0.5179565E+02  0.7957747E-01  0.1435890E+00
         13   -1    0    0    0    0  0.00000000000E+00  0.00000000000E+00  0.99999944173E+02  0.99999999993E+02  0.10566000000E+00 0. -1.
         22   -1    0    0    0    0 -0.00000000000E+00 -0.00000000000E+00 -0.16975267985E+02  0.16975267985E+02  0.00000000000E+00 0.  1.
         13    1    1    2    0    0  0.78442744018E+00  0.13497185244E+02 -0.53501232944E+01  0.14540437381E+02  0.10566000000E+00 0.  1.
        996    1    1    2    0    0 -0.78442744018E+00 -0.13497185244E+02  0.88374799483E+02  0.10243483060E+03  0.50000000000E+02 0.  0.
<mgrwt>
<rscale>  0 0.51795650E+02</rscale>
<asrwt>0</asrwt>
<pdfrwt beam="1">  1       13 0.10000000E+01 0.51795650E+02</pdfrwt>
<pdfrwt beam="2">  1       22 0.16975291E+00 0.51795650E+02</pdfrwt>
<totfact> 0.60929496E-01</totfact>
</mgrwt>
</event>
<event>
 4    1  0.2486873E+000  0.5410345E+02  0.7957747E-01  0.1424387E+00
         13   -1    0    0    0    0  0.00000000000E+00  0.00000000000E+00  0.99999944186E+02  0.10000000001E+03  0.10566000000E+00 0. -1.
         22   -1    0    0    0    0 -0.00000000000E+00 -0.00000000000E+00 -0.16679462019E+02  0.16679462019E+02  0.00000000000E+00 0.  1.
         13    1    1    2    0    0 -0.10638064914E+02  0.17720470893E+02  0.46248545992E+01  0.21179800705E+02  0.10566000000E+00 0.  1.
        996    1    1    2    0    0  0.10638064914E+02 -0.17720470893E+02  0.78695627568E+02  0.95499661320E+02  0.50000000000E+02 0.  0.
<mgrwt>
<rscale>  0 0.54103452E+02</rscale>
<asrwt>0</asrwt>
<pdfrwt beam="1">  1       13 0.10000000E+01 0.54103452E+02</pdfrwt>
<pdfrwt beam="2">  1       22 0.16679485E+00 0.54103452E+02</pdfrwt>
<totfact> 0.63105755E-01</totfact>
</mgrwt>
</event>
<event>
 4    1  0.2486873E+000  0.6016268E+02  0.7957747E-01  0.1397150E+00
         13   -1    0    0    0    0  0.00000000000E+00  0.00000000000E+00  0.99999944178E+02  0.99999999998E+02  0.10566000000E+00 0. -1.
         22   -1    0    0    0    0 -0.00000000000E+00 -0.00000000000E+00 -0.22053809534E+02  0.22053809534E+02  0.00000000000E+00 0.  1.
         13    1    1    2    0    0 -0.29043304427E+02 -0.16614278233E+02  0.23251529675E+02  0.40745460723E+02  0.10566000000E+00 0.  1.
        996    1    1    2    0    0  0.29043304427E+02  0.16614278233E+02  0.54694604969E+02  0.81308348809E+02  0.50000000000E+02 0.  0.
<mgrwt>
<rscale>  0 0.60162678E+02</rscale>
<asrwt>0</asrwt>
<pdfrwt beam="1">  1       13 0.10000000E+01 0.60162678E+02</pdfrwt>
<pdfrwt beam="2">  1       22 0.22053831E+00 0.60162678E+02</pdfrwt>
<totfact> 0.38130211E-01</totfact>
</mgrwt>
</event>
<event>
 4    1  0.2486873E+000  0.5100148E+02  0.7957747E-01  0.1440014E+00
         13   -1    0    0    0    0  0.00000000000E+00  0.00000000000E+00  0.99999944180E+02  0.10000000000E+03  0.10566000000E+00 0. -1.
         22   -1    0    0    0    0 -0.00000000000E+00 -0.00000000000E+00 -0.93756643938E+01  0.93756643938E+01  0.00000000000E+00 0. -1.
         13    1    1    2    0    0  0.94464169145E+01 -0.34519454089E+01  0.18222996345E+02  0.20814405575E+02  0.10566000000E+00 0.  1.
        996    1    1    2    0    0 -0.94464169145E+01  0.34519454089E+01  0.72401283441E+02  0.88561258819E+02  0.50000000000E+02 0.  0.
<mgrwt>
<rscale>  0 0.51001478E+02</rscale>
<asrwt>0</asrwt>
<pdfrwt beam="1">  1       13 0.10000000E+01 0.51001478E+02</pdfrwt>
<pdfrwt beam="2">  1       22 0.93756897E-01 0.51001478E+02</pdfrwt>
<totfact> 0.15427637E+00</totfact>
</mgrwt>
</event>
<event>
 4    1  0.2486873E+000  0.5141659E+02  0.7957747E-01  0.1437847E+00
         13   -1    0    0    0    0  0.00000000000E+00  0.00000000000E+00  0.99999944178E+02  0.99999999999E+02  0.10566000000E+00 0. -1.
         22   -1    0    0    0    0 -0.00000000000E+00 -0.00000000000E+00 -0.21604848823E+02  0.21604848823E+02  0.00000000000E+00 0.  1.
         13    1    1    2    0    0  0.84398268198E+01 -0.85109032901E+01 -0.12409877860E+02  0.17253474552E+02  0.10566000000E+00 0.  1.
        996    1    1    2    0    0 -0.84398268198E+01  0.85109032901E+01  0.90804973215E+02  0.10435137427E+03  0.50000000000E+02 0.  0.
<mgrwt>
<rscale>  0 0.51416594E+02</rscale>
<asrwt>0</asrwt>
<pdfrwt beam="1">  1       13 0.10000000E+01 0.51416594E+02</pdfrwt>
<pdfrwt beam="2">  1       22 0.21604871E+00 0.51416594E+02</pdfrwt>
<totfact> 0.39119116E-01</totfact>
</mgrwt>
</event>
<event>
 4    1  0.2486873E+000  0.5301584E+02  0.7957747E-01  0.1429722E+00
         13   -1    0    0    0    0  0.00000000000E+00  0.00000000000E+00  0.99999944181E+02  0.10000000000E+03  0.10566000000E+00 0.  1.
         22   -1    0    0    0    0 -0.00000000000E+00 -0.00000000000E+00 -0.25434653920E+02  0.25434653920E+02  0.00000000000E+00 0. -1.
         13    1    1    2    0    0 -0.65626687575E+00  0.17613870123E+02 -0.13799782702E+02  0.22385805180E+02  0.10566000000E+00 0. -1.
        996    1    1    2    0    0  0.65626687575E+00 -0.17613870123E+02  0.88365072964E+02  0.10304884874E+03  0.50000000000E+02 0.  0.
<mgrwt>
<rscale>  0 0.53015838E+02</rscale>
<asrwt>0</asrwt>
<pdfrwt beam="1">  1       13 0.10000000E+01 0.53015838E+02</pdfrwt>
<pdfrwt beam="2">  1       22 0.25434675E+00 0.53015838E+02</pdfrwt>
<totfact> 0.28540648E-01</totfact>
</mgrwt>
</event>
<event>
 4    1  0.2486873E+000  0.5393928E+02  0.7957747E-01  0.1425183E+00
         13   -1    0    0    0    0  0.00000000000E+00  0.00000000000E+00  0.99999944173E+02  0.99999999993E+02  0.10566000000E+00 0. -1.
         22   -1    0    0    0    0 -0.00000000000E+00 -0.00000000000E+00 -0.19065419188E+02  0.19065419188E+02  0.00000000000E+00 0.  1.
         13    1    1    2    0    0  0.11876631930E+02 -0.16382674384E+02 -0.17847183827E+01  0.20313610948E+02  0.10566000000E+00 0.  1.
        996    1    1    2    0    0 -0.11876631930E+02  0.16382674384E+02  0.82719243368E+02  0.98751808234E+02  0.50000000000E+02 0.  0.
<mgrwt>
<rscale>  0 0.53939284E+02</rscale>
<asrwt>0</asrwt>
<pdfrwt beam="1">  1       13 0.10000000E+01 0.53939284E+02</pdfrwt>
<pdfrwt beam="2">  1       22 0.19065442E+00 0.53939284E+02</pdfrwt>
<totfact> 0.49674022E-01</totfact>
</mgrwt>
</event>
<event>
 4    1  0.2486873E+000  0.5202391E+02  0.7957747E-01  0.1434721E+00
         13   -1    0    0    0    0  0.00000000000E+00  0.00000000000E+00  0.99999944179E+02  0.99999999999E+02  0.10566000000E+00 0. -1.
         22   -1    0    0    0    0 -0.00000000000E+00 -0.00000000000E+00 -0.27127455274E+02  0.27127455274E+02  0.00000000000E+00 0.  1.
         13    1    1    2    0    0 -0.28730259948E+01  0.14079523012E+02 -0.17625915306E+02  0.22741400595E+02  0.10566000000E+00 0.  1.
        996    1    1    2    0    0  0.28730259948E+01 -0.14079523012E+02  0.90498404211E+02  0.10438605468E+03  0.50000000000E+02 0.  0.
<mgrwt>
<rscale>  0 0.52023910E+02</rscale>
<asrwt>0</asrwt>
<pdfrwt beam="1">  1       13 0.10000000E+01 0.52023910E+02</pdfrwt>
<pdfrwt beam="2">  1       22 0.27127476E+00 0.52023910E+02</pdfrwt>
<totfact> 0.25111172E-01</totfact>
</mgrwt>
</event>
<event>
 4    1  0.2486873E+000  0.6010656E+02  0.7957747E-01  0.1397385E+00
         13   -1    0    0    0    0  0.00000000000E+00  0.00000000000E+00  0.99999944187E+02  0.10000000001E+03  0.10566000000E+00 0.  1.
         22   -1    0    0    0    0 -0.00000000000E+00 -0.00000000000E+00 -0.25062214291E+02  0.25062214291E+02  0.00000000000E+00 0. -1.
         13    1    1    2    0    0  0.31245842624E+02  0.11683149539E+02  0.65164336374E+01  0.33989317966E+02  0.10566000000E+00 0. -1.
        996    1    1    2    0    0 -0.31245842624E+02 -0.11683149539E+02  0.68421296259E+02  0.91072896331E+02  0.50000000000E+02 0.  0.
<mgrwt>
<rscale>  0 0.60106561E+02</rscale>
<asrwt>0</asrwt>
<pdfrwt beam="1">  1       13 0.10000000E+01 0.60106561E+02</pdfrwt>
<pdfrwt beam="2">  1       22 0.25062235E+00 0.60106561E+02</pdfrwt>
<totfact> 0.29682003E-01</totfact>
</mgrwt>
</event>
<event>
 4    1  0.2486873E+000  0.5396966E+02  0.7957747E-01  0.1425035E+00
         13   -1    0    0    0    0  0.00000000000E+00  0.00000000000E+00  0.99999944172E+02  0.99999999993E+02  0.10566000000E+00 0. -1.
         22   -1    0    0    0    0 -0.00000000000E+00 -0.00000000000E+00 -0.29042009711E+02  0.29042009711E+02  0.00000000000E+00 0.  1.
         13    1    1    2    0    0  0.20315144952E+02 -0.13668867944E+00 -0.16567514953E+02  0.26214833854E+02  0.10566000000E+00 0.  1.
        996    1    1    2    0    0 -0.20315144952E+02  0.13668867944E+00  0.87525449414E+02  0.10282717585E+03  0.50000000000E+02 0.  0.
<mgrwt>
<rscale>  0 0.53969656E+02</rscale>
<asrwt>0</asrwt>
<pdfrwt beam="1">  1       13 0.10000000E+01 0.53969656E+02</pdfrwt>
<pdfrwt beam="2">  1       22 0.29042030E+00 0.53969656E+02</pdfrwt>
<totfact> 0.22069335E-01</totfact>
</mgrwt>
</event>
<event>
 4    1  0.2486873E+000  0.6918344E+02  0.7957747E-01  0.1362892E+00
         13   -1    0    0    0    0  0.00000000000E+00  0.00000000000E+00  0.99999944176E+02  0.99999999996E+02  0.10566000000E+00 0. -1.
         22   -1    0    0    0    0 -0.00000000000E+00 -0.00000000000E+00 -0.46906412093E+02  0.46906412093E+02  0.00000000000E+00 0.  1.
         13    1    1    2    0    0 -0.13231905672E+02 -0.45948500308E+02 -0.14719714829E+02  0.50030282599E+02  0.10566000000E+00 0.  1.
        996    1    1    2    0    0  0.13231905672E+02  0.45948500308E+02  0.67813246912E+02  0.96876129490E+02  0.50000000000E+02 0.  0.
<mgrwt>
<rscale>  0 0.69183437E+02</rscale>
<asrwt>0</asrwt>
<pdfrwt beam="1">  1       13 0.10000000E+01 0.69183437E+02</pdfrwt>
<pdfrwt beam="2">  1       22 0.46906427E+00 0.69183437E+02</pdfrwt>
<totfact> 0.88014950E-02</totfact>
</mgrwt>
</event>
<event>
 4    1  0.2486873E+000  0.5230805E+02  0.7957747E-01  0.1433276E+00
         13   -1    0    0    0    0  0.00000000000E+00  0.00000000000E+00  0.99999944177E+02  0.99999999997E+02  0.10566000000E+00 0.  1.
         22   -1    0    0    0    0 -0.00000000000E+00 -0.00000000000E+00 -0.15142159803E+02  0.15142159803E+02  0.00000000000E+00 0. -1.
         13    1    1    2    0    0  0.75766646249E+01 -0.13368854358E+02 -0.10624491278E+00  0.15367321357E+02  0.10566000000E+00 0. -1.
        996    1    1    2    0    0 -0.75766646249E+01  0.13368854358E+02  0.84964029286E+02  0.99774838443E+02  0.50000000000E+02 0.  0.
<mgrwt>
<rscale>  0 0.52308050E+02</rscale>
<asrwt>0</asrwt>
<pdfrwt beam="1">  1       13 0.10000000E+01 0.52308050E+02</pdfrwt>
<pdfrwt beam="2">  1       22 0.15142183E+00 0.52308050E+02</pdfrwt>
<totfact> 0.74163293E-01</totfact>
</mgrwt>
</event>
<event>
 4    1  0.2486873E+000  0.5243390E+02  0.7957747E-01  0.1432639E+00
         13   -1    0    0    0    0  0.00000000000E+00  0.00000000000E+00  0.99999944175E+02  0.99999999995E+02  0.10566000000E+00 0. -1.
         22   -1    0    0    0    0 -0.00000000000E+00 -0.00000000000E+00 -0.14543957434E+02  0.14543957434E+02  0.00000000000E+00 0.  1.
         13    1    1    2    0    0 -0.44296065514E+01 -0.15155598853E+02  0.19073875332E+01  0.15904806884E+02  0.10566000000E+00 0.  1.
        996    1    1    2    0    0  0.44296065514E+01  0.15155598853E+02  0.83548599207E+02  0.98639150545E+02  0.50000000000E+02 0.  0.
<mgrwt>
<rscale>  0 0.52433897E+02</rscale>
<asrwt>0</asrwt>
<pdfrwt beam="1">  1       13 0.10000000E+01 0.52433897E+02</pdfrwt>
<pdfrwt beam="2">  1       22 0.14543981E+00 0.52433897E+02</pdfrwt>
<totfact> 0.79310366E-01</totfact>
</mgrwt>
</event>
<event>
 4    1  0.2486873E+000  0.5554455E+02  0.7957747E-01  0.1417541E+00
         13   -1    0    0    0    0  0.00000000000E+00  0.00000000000E+00  0.99999944173E+02  0.99999999993E+02  0.10566000000E+00 0. -1.
         22   -1    0    0    0    0 -0.00000000000E+00 -0.00000000000E+00 -0.15935842327E+02  0.15935842327E+02  0.00000000000E+00 0.  1.
         13    1    1    2    0    0  0.15772108656E+02 -0.18342220973E+02  0.22828492004E+02  0.33261805316E+02  0.10566000000E+00 0.  1.
        996    1    1    2    0    0 -0.15772108656E+02  0.18342220973E+02  0.61235609842E+02  0.82674037003E+02  0.50000000000E+02 0.  0.
<mgrwt>
<rscale>  0 0.55544545E+02</rscale>
<asrwt>0</asrwt>
<pdfrwt beam="1">  1       13 0.10000000E+01 0.55544545E+02</pdfrwt>
<pdfrwt beam="2">  1       22 0.15935866E+00 0.55544545E+02</pdfrwt>
<totfact> 0.68454513E-01</totfact>
</mgrwt>
</event>
<event>
 4    1  0.2486873E+000  0.5115940E+02  0.7957747E-01  0.1439187E+00
         13   -1    0    0    0    0  0.00000000000E+00  0.00000000000E+00  0.99999944184E+02  0.10000000000E+03  0.10566000000E+00 0. -1.
         22   -1    0    0    0    0 -0.00000000000E+00 -0.00000000000E+00 -0.11027750810E+02  0.11027750810E+02  0.00000000000E+00 0. -1.
         13    1    1    2    0    0 -0.47239636748E+01  0.97451623250E+01  0.34406701230E+01  0.11363687627E+02  0.10566000000E+00 0.  1.
        996    1    1    2    0    0  0.47239636748E+01 -0.97451623250E+01  0.85531523251E+02  0.99664063188E+02  0.50000000000E+02 0.  0.
<mgrwt>
<rscale>  0 0.51159398E+02</rscale>
<asrwt>0</asrwt>
<pdfrwt beam="1">  1       13 0.10000000E+01 0.51159398E+02</pdfrwt>
<pdfrwt beam="2">  1       22 0.11027776E+00 0.51159398E+02</pdfrwt>
<totfact> 0.12187484E+00</totfact>
</mgrwt>
</event>
<event>
 4    1  0.2486873E+000  0.5176192E+02  0.7957747E-01  0.1436063E+00
         13   -1    0    0    0    0  0.00000000000E+00  0.00000000000E+00  0.99999944171E+02  0.99999999992E+02  0.10566000000E+00 0.  1.
         22   -1    0    0    0    0 -0.00000000000E+00 -0.00000000000E+00 -0.21429346971E+02  0.21429346971E+02  0.00000000000E+00 0. -1.
         13    1    1    2    0    0 -0.72663854139E+01 -0.11247055452E+02 -0.11429976837E+02  0.17605457899E+02  0.10566000000E+00 0. -1.
        996    1    1    2    0    0  0.72663854139E+01  0.11247055452E+02  0.90000574037E+02  0.10382388906E+03  0.50000000000E+02 0.  0.
<mgrwt>
<rscale>  0 0.51761922E+02</rscale>
<asrwt>0</asrwt>
<pdfrwt beam="1">  1       13 0.10000000E+01 0.51761922E+02</pdfrwt>
<pdfrwt beam="2">  1       22 0.21429369E+00 0.51761922E+02</pdfrwt>
<totfact> 0.39757218E-01</totfact>
</mgrwt>
</event>
<event>
 4    1  0.2486873E+000  0.5217568E+02  0.7957747E-01  0.1433948E+00
         13   -1    0    0    0    0  0.00000000000E+00  0.00000000000E+00  0.99999944182E+02  0.10000000000E+03  0.10566000000E+00 0.  1.
         22   -1    0    0    0    0 -0.00000000000E+00 -0.00000000000E+00 -0.18890958898E+02  0.18890958898E+02  0.00000000000E+00 0. -1.
         13    1    1    2    0    0 -0.14162917394E+02  0.46597252473E+01 -0.70160910933E+01  0.16478409108E+02  0.10566000000E+00 0. -1.
        996    1    1    2    0    0  0.14162917394E+02 -0.46597252473E+01  0.88125076377E+02  0.10241254979E+03  0.50000000000E+02 0.  0.
<mgrwt>
<rscale>  0 0.52175677E+02</rscale>
<asrwt>0</asrwt>
<pdfrwt beam="1">  1       13 0.10000000E+01 0.52175677E+02</pdfrwt>
<pdfrwt beam="2">  1       22 0.18890982E+00 0.52175677E+02</pdfrwt>
<totfact> 0.50356757E-01</totfact>
</mgrwt>
</event>
<event>
 4    1  0.2486873E+000  0.5255520E+02  0.7957747E-01  0.1432027E+00
         13   -1    0    0    0    0  0.00000000000E+00  0.00000000000E+00  0.99999944179E+02  0.99999999999E+02  0.10566000000E+00 0. -1.
         22   -1    0    0    0    0 -0.00000000000E+00 -0.00000000000E+00 -0.13308987869E+02  0.13308987869E+02  0.00000000000E+00 0. -1.
         13    1    1    2    0    0  0.75413635177E+00 -0.16170367914E+02  0.65297326350E+01  0.17455603468E+02  0.10566000000E+00 0.  1.
        996    1    1    2    0    0 -0.75413635177E+00  0.16170367914E+02  0.80161223675E+02  0.95853384401E+02  0.50000000000E+02 0.  0.
<mgrwt>
<rscale>  0 0.52555205E+02</rscale>
<asrwt>0</asrwt>
<pdfrwt beam="1">  1       13 0.10000000E+01 0.52555205E+02</pdfrwt>
<pdfrwt beam="2">  1       22 0.13309012E+00 0.52555205E+02</pdfrwt>
<totfact> 0.91571428E-01</totfact>
</mgrwt>
</event>
<event>
 4    1  0.2486873E+000  0.5152651E+02  0.7957747E-01  0.1437278E+00
         13   -1    0    0    0    0  0.00000000000E+00  0.00000000000E+00  0.99999944180E+02  0.10000000000E+03  0.10566000000E+00 0. -1.
         22   -1    0    0    0    0 -0.00000000000E+00 -0.00000000000E+00 -0.10249069475E+02  0.10249069475E+02  0.00000000000E+00 0. -1.
         13    1    1    2    0    0 -0.10176898235E+02 -0.71702218645E+01  0.15745371510E+02  0.20072598917E+02  0.10566000000E+00 0.  1.
        996    1    1    2    0    0  0.10176898235E+02  0.71702218645E+01  0.74005503194E+02  0.90176470558E+02  0.50000000000E+02 0.  0.
<mgrwt>
<rscale>  0 0.51526511E+02</rscale>
<asrwt>0</asrwt>
<pdfrwt beam="1">  1       13 0.10000000E+01 0.51526511E+02</pdfrwt>
<pdfrwt beam="2">  1       22 0.10249095E+00 0.51526511E+02</pdfrwt>
<totfact> 0.13587261E+00</totfact>
</mgrwt>
</event>
<event>
 4    1  0.2486873E+000  0.5289582E+02  0.7957747E-01  0.1430320E+00
         13   -1    0    0    0    0  0.00000000000E+00  0.00000000000E+00  0.99999944181E+02  0.10000000000E+03  0.10566000000E+00 0.  1.
         22   -1    0    0    0    0 -0.00000000000E+00 -0.00000000000E+00 -0.18008013927E+02  0.18008013927E+02  0.00000000000E+00 0. -1.
         13    1    1    2    0    0  0.30782469270E+01  0.16985066604E+02 -0.33679016384E+01  0.17587552904E+02  0.10566000000E+00 0. -1.
        996    1    1    2    0    0 -0.30782469270E+01 -0.16985066604E+02  0.85359831891E+02  0.10042046102E+03  0.50000000000E+02 0.  0.
<mgrwt>
<rscale>  0 0.52895823E+02</rscale>
<asrwt>0</asrwt>
<pdfrwt beam="1">  1       13 0.10000000E+01 0.52895823E+02</pdfrwt>
<pdfrwt beam="2">  1       22 0.18008037E+00 0.52895823E+02</pdfrwt>
<totfact> 0.54988667E-01</totfact>
</mgrwt>
</event>
<event>
 4    1  0.2486873E+000  0.5252755E+02  0.7957747E-01  0.1432167E+00
         13   -1    0    0    0    0  0.00000000000E+00  0.00000000000E+00  0.99999944180E+02  0.10000000000E+03  0.10566000000E+00 0. -1.
         22   -1    0    0    0    0 -0.00000000000E+00 -0.00000000000E+00 -0.12910441366E+02  0.12910441366E+02  0.00000000000E+00 0.  1.
         13    1    1    2    0    0 -0.11591300854E+02  0.11170749230E+02  0.80250526531E+01  0.17987677114E+02  0.10566000000E+00 0.  1.
        996    1    1    2    0    0  0.11591300854E+02 -0.11170749230E+02  0.79064450162E+02  0.94922764252E+02  0.50000000000E+02 0.  0.
<mgrwt>
<rscale>  0 0.52527554E+02</rscale>
<asrwt>0</asrwt>
<pdfrwt beam="1">  1       13 0.10000000E+01 0.52527554E+02</pdfrwt>
<pdfrwt beam="2">  1       22 0.12910466E+00 0.52527554E+02</pdfrwt>
<totfact> 0.96074107E-01</totfact>
</mgrwt>
</event>
<event>
 4    1  0.2486873E+000  0.5210296E+02  0.7957747E-01  0.1434318E+00
         13   -1    0    0    0    0  0.00000000000E+00  0.00000000000E+00  0.99999944183E+02  0.10000000000E+03  0.10566000000E+00 0. -1.
         22   -1    0    0    0    0 -0.00000000000E+00 -0.00000000000E+00 -0.14210879702E+02  0.14210879702E+02  0.00000000000E+00 0.  1.
         13    1    1    2    0    0 -0.13154618503E+02 -0.64555601885E+01  0.99388975100E+00  0.14687315146E+02  0.10566000000E+00 0.  1.
        996    1    1    2    0    0  0.13154618503E+02  0.64555601885E+01  0.84795174730E+02  0.99523564560E+02  0.50000000000E+02 0.  0.
<mgrwt>
<rscale>  0 0.52102958E+02</rscale>
<asrwt>0</asrwt>
<pdfrwt beam="1">  1       13 0.10000000E+01 0.52102958E+02</pdfrwt>
<pdfrwt beam="2">  1       22 0.14210904E+00 0.52102958E+02</pdfrwt>
<totfact> 0.82320863E-01</totfact>
</mgrwt>
</event>
<event>
 4    1  0.2486873E+000  0.5110072E+02  0.7957747E-01  0.1439493E+00
         13   -1    0    0    0    0  0.00000000000E+00  0.00000000000E+00  0.99999944174E+02  0.99999999994E+02  0.10566000000E+00 0.  1.
         22   -1    0    0    0    0 -0.00000000000E+00 -0.00000000000E+00 -0.96932704194E+01  0.96932704194E+01  0.00000000000E+00 0.  1.
         13    1    1    2    0    0  0.10140518961E+02  0.29075598614E+01  0.10191446585E+02  0.14668359713E+02  0.10566000000E+00 0. -1.
        996    1    1    2    0    0 -0.10140518961E+02 -0.29075598614E+01  0.80115227169E+02  0.95024910700E+02  0.50000000000E+02 0.  0.
<mgrwt>
<rscale>  0 0.51100724E+02</rscale>
<asrwt>0</asrwt>
<pdfrwt beam="1">  1       13 0.10000000E+01 0.51100724E+02</pdfrwt>
<pdfrwt beam="2">  1       22 0.96932956E-01 0.51100724E+02</pdfrwt>
<totfact> 0.14713559E+00</totfact>
</mgrwt>
</event>
<event>
 4    1  0.2486873E+000  0.5722106E+02  0.7957747E-01  0.1409878E+00
         13   -1    0    0    0    0  0.00000000000E+00  0.00000000000E+00  0.99999944174E+02  0.99999999994E+02  0.10566000000E+00 0. -1.
         22   -1    0    0    0    0 -0.00000000000E+00 -0.00000000000E+00 -0.22896594770E+02  0.22896594770E+02  0.00000000000E+00 0.  1.
         13    1    1    2    0    0 -0.27472116985E+02  0.44195112677E+01  0.12137828250E+01  0.27851996774E+02  0.10566000000E+00 0.  1.
        996    1    1    2    0    0  0.27472116985E+02 -0.44195112677E+01  0.75889566579E+02  0.95044597990E+02  0.50000000000E+02 0.  0.
<mgrwt>
<rscale>  0 0.57221056E+02</rscale>
<asrwt>0</asrwt>
<pdfrwt beam="1">  1       13 0.10000000E+01 0.57221056E+02</pdfrwt>
<pdfrwt beam="2">  1       22 0.22896616E+00 0.57221056E+02</pdfrwt>
<totfact> 0.35301612E-01</totfact>
</mgrwt>
</event>
<event>
 4    1  0.2486873E+000  0.5595291E+02  0.7957747E-01  0.1415645E+00
         13   -1    0    0    0    0  0.00000000000E+00  0.00000000000E+00  0.99999944186E+02  0.10000000001E+03  0.10566000000E+00 0.  1.
         22   -1    0    0    0    0 -0.00000000000E+00 -0.00000000000E+00 -0.17481068644E+02  0.17481068644E+02  0.00000000000E+00 0.  1.
         13    1    1    2    0    0 -0.31188533244E+01 -0.24919899785E+02  0.39897573704E+02  0.47143994346E+02  0.10566000000E+00 0. -1.
        996    1    1    2    0    0  0.31188533244E+01  0.24919899785E+02  0.42621301838E+02  0.70337074305E+02  0.50000000000E+02 0.  0.
<mgrwt>
<rscale>  0 0.55952915E+02</rscale>
<asrwt>0</asrwt>
<pdfrwt beam="1">  1       13 0.10000000E+01 0.55952915E+02</pdfrwt>
<pdfrwt beam="2">  1       22 0.17481092E+00 0.55952915E+02</pdfrwt>
<totfact> 0.58303407E-01</totfact>
</mgrwt>
</event>
<event>
 4    1  0.2486873E+000  0.5109724E+02  0.7957747E-01  0.1439512E+00
         13   -1    0    0    0    0  0.00000000000E+00  0.00000000000E+00  0.99999944181E+02  0.10000000000E+03  0.10566000000E+00 0. -1.
         22   -1    0    0    0    0 -0.00000000000E+00 -0.00000000000E+00 -0.25445757721E+02  0.25445757721E+02  0.00000000000E+00 0.  1.
         13    1    1    2    0    0  0.13746726300E+00 -0.10531356067E+02 -0.17347209488E+02  0.20294462272E+02  0.10566000000E+00 0.  1.
        996    1    1    2    0    0 -0.13746726300E+00  0.10531356067E+02  0.91901395947E+02  0.10515129545E+03  0.50000000000E+02 0.  0.
<mgrwt>
<rscale>  0 0.51097244E+02</rscale>
<asrwt>0</asrwt>
<pdfrwt beam="1">  1       13 0.10000000E+01 0.51097244E+02</pdfrwt>
<pdfrwt beam="2">  1       22 0.25445779E+00 0.51097244E+02</pdfrwt>
<totfact> 0.28431588E-01</totfact>
</mgrwt>
</event>
<event>
 4    1  0.2486873E+000  0.5308332E+02  0.7957747E-01  0.1429387E+00
         13   -1    0    0    0    0  0.00000000000E+00  0.00000000000E+00  0.99999944178E+02  0.99999999998E+02  0.10566000000E+00 0. -1.
         22   -1    0    0    0    0 -0.00000000000E+00 -0.00000000000E+00 -0.46013186481E+02  0.46013186481E+02  0.00000000000E+00 0.  1.
         13    1    1    2    0    0  0.11393917882E+02 -0.13711939281E+02 -0.36774536791E+02  0.40868280656E+02  0.10566000000E+00 0.  1.
        996    1    1    2    0    0 -0.11393917882E+02  0.13711939281E+02  0.90761294487E+02  0.10514490582E+03  0.50000000000E+02 0.  0.
<mgrwt>
<rscale>  0 0.53083318E+02</rscale>
<asrwt>0</asrwt>
<pdfrwt beam="1">  1       13 0.10000000E+01 0.53083318E+02</pdfrwt>
<pdfrwt beam="2">  1       22 0.46013202E+00 0.53083318E+02</pdfrwt>
<totfact> 0.91661903E-02</totfact>
</mgrwt>
</event>
<event>
 4    1  0.2486873E+000  0.5439940E+02  0.7957747E-01  0.1422961E+00
         13   -1    0    0    0    0  0.00000000000E+00  0.00000000000E+00  0.99999944180E+02  0.10000000000E+03  0.10566000000E+00 0.  1.
         22   -1    0    0    0    0 -0.00000000000E+00 -0.00000000000E+00 -0.16127722818E+02  0.16127722818E+02  0.00000000000E+00 0. -1.
         13    1    1    2    0    0 -0.11893962704E+02  0.17827750634E+02  0.82337769072E+01  0.22958686541E+02  0.10566000000E+00 0. -1.
        996    1    1    2    0    0  0.11893962704E+02 -0.17827750634E+02  0.75638444454E+02  0.93169036278E+02  0.50000000000E+02 0.  0.
<mgrwt>
<rscale>  0 0.54399403E+02</rscale>
<asrwt>0</asrwt>
<pdfrwt beam="1">  1       13 0.10000000E+01 0.54399403E+02</pdfrwt>
<pdfrwt beam="2">  1       22 0.16127746E+00 0.54399403E+02</pdfrwt>
<totfact> 0.66921528E-01</totfact>
</mgrwt>
</event>
<event>
 4    1  0.2486873E+000  0.5188807E+02  0.7957747E-01  0.1435416E+00
         13   -1    0    0    0    0  0.00000000000E+00  0.00000000000E+00  0.99999944182E+02  0.10000000000E+03  0.10566000000E+00 0.  1.
         22   -1    0    0    0    0 -0.00000000000E+00 -0.00000000000E+00 -0.12705843605E+02  0.12705843605E+02  0.00000000000E+00 0. -1.
         13    1    1    2    0    0 -0.26785435214E+01  0.13608721991E+02  0.37646930787E+01  0.14372055790E+02  0.10566000000E+00 0. -1.
        996    1    1    2    0    0  0.26785435214E+01 -0.13608721991E+02  0.83529407498E+02  0.98333787817E+02  0.50000000000E+02 0.  0.
<mgrwt>
<rscale>  0 0.51888071E+02</rscale>
<asrwt>0</asrwt>
<pdfrwt beam="1">  1       13 0.10000000E+01 0.51888071E+02</pdfrwt>
<pdfrwt beam="2">  1       22 0.12705868E+00 0.51888071E+02</pdfrwt>
<totfact> 0.98373146E-01</totfact>
</mgrwt>
</event>
<event>
 4    1  0.2486873E+000  0.5134644E+02  0.7957747E-01  0.1438212E+00
         13   -1    0    0    0    0  0.00000000000E+00  0.00000000000E+00  0.99999944178E+02  0.99999999998E+02  0.10566000000E+00 0.  1.
         22   -1    0    0    0    0 -0.00000000000E+00 -0.00000000000E+00 -0.13740992317E+02  0.13740992317E+02  0.00000000000E+00 0.  1.
         13    1    1    2    0    0  0.57061680167E+00 -0.11667550205E+02 -0.17859246543E+01  0.11817699532E+02  0.10566000000E+00 0. -1.
        996    1    1    2    0    0 -0.57061680167E+00  0.11667550205E+02  0.88044876515E+02  0.10192329278E+03  0.50000000000E+02 0.  0.
<mgrwt>
<rscale>  0 0.51346444E+02</rscale>
<asrwt>0</asrwt>
<pdfrwt beam="1">  1       13 0.10000000E+01 0.51346444E+02</pdfrwt>
<pdfrwt beam="2">  1       22 0.13741016E+00 0.51346444E+02</pdfrwt>
<totfact> 0.86788185E-01</totfact>
</mgrwt>
</event>
<event>
 4    1  0.2486873E+000  0.5217803E+02  0.7957747E-01  0.1433936E+00
         13   -1    0    0    0    0  0.00000000000E+00  0.00000000000E+00  0.99999944175E+02  0.99999999996E+02  0.10566000000E+00 0. -1.
         22   -1    0    0    0    0 -0.00000000000E+00 -0.00000000000E+00 -0.13582574490E+02  0.13582574490E+02  0.00000000000E+00 0.  1.
         13    1    1    2    0    0  0.39508569863E+01 -0.14385310037E+02  0.30408660586E+01  0.15225125491E+02  0.10566000000E+00 0.  1.
        996    1    1    2    0    0 -0.39508569863E+01  0.14385310037E+02  0.83376503626E+02  0.98357448995E+02  0.50000000000E+02 0.  0.
<mgrwt>
<rscale>  0 0.52178026E+02</rscale>
<asrwt>0</asrwt>
<pdfrwt beam="1">  1       13 0.10000000E+01 0.52178026E+02</pdfrwt>
<pdfrwt beam="2">  1       22 0.13582599E+00 0.52178026E+02</pdfrwt>
<totfact> 0.88575431E-01</totfact>
</mgrwt>
</event>
<event>
 4    1  0.2486873E+000  0.5152468E+02  0.7957747E-01  0.1437287E+00
         13   -1    0    0    0    0  0.00000000000E+00  0.00000000000E+00  0.99999944175E+02  0.99999999995E+02  0.10566000000E+00 0.  1.
         22   -1    0    0    0    0 -0.00000000000E+00 -0.00000000000E+00 -0.14157599191E+02  0.14157599191E+02  0.00000000000E+00 0. -1.
         13    1    1    2    0    0 -0.86142110044E+01  0.89771030298E+01 -0.17202084306E+01  0.12560385787E+02  0.10566000000E+00 0. -1.
        996    1    1    2    0    0  0.86142110044E+01 -0.89771030298E+01  0.87562553414E+02  0.10159721340E+03  0.50000000000E+02 0.  0.
<mgrwt>
<rscale>  0 0.51524684E+02</rscale>
<asrwt>0</asrwt>
<pdfrwt beam="1">  1       13 0.10000000E+01 0.51524684E+02</pdfrwt>
<pdfrwt beam="2">  1       22 0.14157623E+00 0.51524684E+02</pdfrwt>
<totfact> 0.82725559E-01</totfact>
</mgrwt>
</event>
<event>
 4    1  0.2486873E+000  0.6136353E+02  0.7957747E-01  0.1392197E+00
         13   -1    0    0    0    0  0.00000000000E+00  0.00000000000E+00  0.99999944177E+02  0.99999999997E+02  0.10566000000E+00 0. -1.
         22   -1    0    0    0    0 -0.00000000000E+00 -0.00000000000E+00 -0.32335061240E+02  0.32335061240E+02  0.00000000000E+00 0.  1.
         13    1    1    2    0    0 -0.35542201249E+02 -0.14948929122E+01 -0.64079961867E+01  0.36146318673E+02  0.10566000000E+00 0.  1.
        996    1    1    2    0    0  0.35542201249E+02  0.14948929122E+01  0.74072879124E+02  0.96188742564E+02  0.50000000000E+02 0.  0.
<mgrwt>
<rscale>  0 0.61363530E+02</rscale>
<asrwt>0</asrwt>
<pdfrwt beam="1">  1       13 0.10000000E+01 0.61363530E+02</pdfrwt>
<pdfrwt beam="2">  1       22 0.32335080E+00 0.61363530E+02</pdfrwt>
<totfact> 0.18243630E-01</totfact>
</mgrwt>
</event>
<event>
 4    1  0.2486873E+000  0.5304112E+02  0.7957747E-01  0.1429596E+00
         13   -1    0    0    0    0  0.00000000000E+00  0.00000000000E+00  0.99999944176E+02  0.99999999996E+02  0.10566000000E+00 0. -1.
         22   -1    0    0    0    0 -0.00000000000E+00 -0.00000000000E+00 -0.26031622977E+02  0.26031622977E+02  0.00000000000E+00 0.  1.
         13    1    1    2    0    0 -0.15114632054E+02  0.92145915679E+01 -0.14498952089E+02  0.22882123494E+02  0.10566000000E+00 0.  1.
        996    1    1    2    0    0  0.15114632054E+02 -0.92145915679E+01  0.88467273288E+02  0.10314949948E+03  0.50000000000E+02 0.  0.
<mgrwt>
<rscale>  0 0.53041124E+02</rscale>
<asrwt>0</asrwt>
<pdfrwt beam="1">  1       13 0.10000000E+01 0.53041124E+02</pdfrwt>
<pdfrwt beam="2">  1       22 0.26031644E+00 0.53041124E+02</pdfrwt>
<totfact> 0.27267445E-01</totfact>
</mgrwt>
</event>
<event>
 4    1  0.2486873E+000  0.5118907E+02  0.7957747E-01  0.1439032E+00
         13   -1    0    0    0    0  0.00000000000E+00  0.00000000000E+00  0.99999944182E+02  0.10000000000E+03  0.10566000000E+00 0.  1.
         22   -1    0    0    0    0 -0.00000000000E+00 -0.00000000000E+00 -0.14654087338E+02  0.14654087338E+02  0.00000000000E+00 0. -1.
         13    1    1    2    0    0 -0.52617727284E+00  0.10956443119E+02 -0.40058566186E+01  0.11678123121E+02  0.10566000000E+00 0. -1.
        996    1    1    2    0    0  0.52617727284E+00 -0.10956443119E+02  0.89351713462E+02  0.10297596422E+03  0.50000000000E+02 0.  0.
<mgrwt>
<rscale>  0 0.51189066E+02</rscale>
<asrwt>0</asrwt>
<pdfrwt beam="1">  1       13 0.10000000E+01 0.51189066E+02</pdfrwt>
<pdfrwt beam="2">  1       22 0.14654111E+00 0.51189066E+02</pdfrwt>
<totfact> 0.78128976E-01</totfact>
</mgrwt>
</event>
<event>
 4    1  0.2486873E+000  0.5405619E+02  0.7957747E-01  0.1424616E+00
         13   -1    0    0    0    0  0.00000000000E+00  0.00000000000E+00  0.99999944179E+02  0.99999999999E+02  0.10566000000E+00 0.  1.
         22   -1    0    0    0    0 -0.00000000000E+00 -0.00000000000E+00 -0.15901428224E+02  0.15901428224E+02  0.00000000000E+00 0.  1.
         13    1    1    2    0    0  0.54158180621E+00  0.20537238456E+02  0.69272777996E+01  0.21681093515E+02  0.10566000000E+00 0. -1.
        996    1    1    2    0    0 -0.54158180621E+00 -0.20537238456E+02  0.77171238155E+02  0.94220334709E+02  0.50000000000E+02 0.  0.
<mgrwt>
<rscale>  0 0.54056188E+02</rscale>
<asrwt>0</asrwt>
<pdfrwt beam="1">  1       13 0.10000000E+01 0.54056188E+02</pdfrwt>
<pdfrwt beam="2">  1       22 0.15901452E+00 0.54056188E+02</pdfrwt>
<totfact> 0.68515581E-01</totfact>
</mgrwt>
</event>
<event>
 4    1  0.2486873E+000  0.6549780E+02  0.7957747E-01  0.1376109E+00
         13   -1    0    0    0    0  0.00000000000E+00  0.00000000000E+00  0.99999944173E+02  0.99999999994E+02  0.10566000000E+00 0. -1.
         22   -1    0    0    0    0 -0.00000000000E+00 -0.00000000000E+00 -0.30173819921E+02  0.30173819921E+02  0.00000000000E+00 0.  1.
         13    1    1    2    0    0 -0.29704004625E+02  0.30126957741E+02  0.15432062309E+02  0.45034666476E+02  0.10566000000E+00 0.  1.
        996    1    1    2    0    0  0.29704004625E+02 -0.30126957741E+02  0.54394061943E+02  0.85139153438E+02  0.50000000000E+02 0.  0.
<mgrwt>
<rscale>  0 0.65497797E+02</rscale>
<asrwt>0</asrwt>
<pdfrwt beam="1">  1       13 0.10000000E+01 0.65497797E+02</pdfrwt>
<pdfrwt beam="2">  1       22 0.30173839E+00 0.65497797E+02</pdfrwt>
<totfact> 0.20802941E-01</totfact>
</mgrwt>
</event>
<event>
 4    1  0.2486873E+000  0.5144364E+02  0.7957747E-01  0.1437707E+00
         13   -1    0    0    0    0  0.00000000000E+00  0.00000000000E+00  0.99999944176E+02  0.99999999996E+02  0.10566000000E+00 0.  1.
         22   -1    0    0    0    0 -0.00000000000E+00 -0.00000000000E+00 -0.12027490793E+02  0.12027490793E+02  0.00000000000E+00 0.  1.
         13    1    1    2    0    0  0.10368776204E+02 -0.62399312398E+01  0.26382694073E+01  0.12386278349E+02  0.10566000000E+00 0. -1.
        996    1    1    2    0    0 -0.10368776204E+02  0.62399312398E+01  0.85334183975E+02  0.99641212440E+02  0.50000000000E+02 0.  0.
<mgrwt>
<rscale>  0 0.51443642E+02</rscale>
<asrwt>0</asrwt>
<pdfrwt beam="1">  1       13 0.10000000E+01 0.51443642E+02</pdfrwt>
<pdfrwt beam="2">  1       22 0.12027515E+00 0.51443642E+02</pdfrwt>
<totfact> 0.10698394E+00</totfact>
</mgrwt>
</event>
<event>
 4    1  0.2486873E+000  0.5476800E+02  0.7957747E-01  0.1421199E+00
         13   -1    0    0    0    0  0.00000000000E+00  0.00000000000E+00  0.99999944182E+02  0.10000000000E+03  0.10566000000E+00 0.  1.
         22   -1    0    0    0    0 -0.00000000000E+00 -0.00000000000E+00 -0.17591038212E+02  0.17591038212E+02  0.00000000000E+00 0.  1.
         13    1    1    2    0    0  0.72574773254E+01 -0.21139136434E+02  0.47899656729E+02  0.52857566583E+02  0.10566000000E+00 0. -1.
        996    1    1    2    0    0 -0.72574773254E+01  0.21139136434E+02  0.34509249241E+02  0.64733471631E+02  0.50000000000E+02 0.  0.
<mgrwt>
<rscale>  0 0.54768002E+02</rscale>
<asrwt>0</asrwt>
<pdfrwt beam="1">  1       13 0.10000000E+01 0.54768002E+02</pdfrwt>
<pdfrwt beam="2">  1       22 0.17591061E+00 0.54768002E+02</pdfrwt>
<totfact> 0.57535449E-01</totfact>
</mgrwt>
</event>
<event>
 4    1  0.2486873E+000  0.5946855E+02  0.7957747E-01  0.1400076E+00
         13   -1    0    0    0    0  0.00000000000E+00  0.00000000000E+00  0.99999944174E+02  0.99999999994E+02  0.10566000000E+00 0. -1.
         22   -1    0    0    0    0 -0.00000000000E+00 -0.00000000000E+00 -0.22073224947E+02  0.22073224947E+02  0.00000000000E+00 0. -1.
         13    1    1    2    0    0 -0.26436458013E+02 -0.18374511800E+02  0.15084831524E+02  0.35553794486E+02  0.10566000000E+00 0.  1.
        996    1    1    2    0    0  0.26436458013E+02  0.18374511800E+02  0.62841887703E+02  0.86519430455E+02  0.50000000000E+02 0.  0.
<mgrwt>
<rscale>  0 0.59468555E+02</rscale>
<asrwt>0</asrwt>
<pdfrwt beam="1">  1       13 0.10000000E+01 0.59468555E+02</pdfrwt>
<pdfrwt beam="2">  1       22 0.22073247E+00 0.59468555E+02</pdfrwt>
<totfact> 0.38026829E-01</totfact>
</mgrwt>
</event>
<event>
 4    1  0.2486873E+000  0.5299742E+02  0.7957747E-01  0.1429814E+00
         13   -1    0    0    0    0  0.00000000000E+00  0.00000000000E+00  0.99999944185E+02  0.10000000000E+03  0.10566000000E+00 0.  1.
         22   -1    0    0    0    0 -0.00000000000E+00 -0.00000000000E+00 -0.14929688523E+02  0.14929688523E+02  0.00000000000E+00 0. -1.
         13    1    1    2    0    0  0.16497392622E+02 -0.60466911171E+01  0.39140554479E+01  0.18001595232E+02  0.10566000000E+00 0. -1.
        996    1    1    2    0    0 -0.16497392622E+02  0.60466911171E+01  0.81156200214E+02  0.96928093296E+02  0.50000000000E+02 0.  0.
<mgrwt>
<rscale>  0 0.52997419E+02</rscale>
<asrwt>0</asrwt>
<pdfrwt beam="1">  1       13 0.10000000E+01 0.52997419E+02</pdfrwt>
<pdfrwt beam="2">  1       22 0.14929712E+00 0.52997419E+02</pdfrwt>
<totfact> 0.76036809E-01</totfact>
</mgrwt>
</event>
<event>
 4    1  0.2486873E+000  0.5129534E+02  0.7957747E-01  0.1438477E+00
         13   -1    0    0    0    0  0.00000000000E+00  0.00000000000E+00  0.99999944186E+02  0.10000000001E+03  0.10566000000E+00 0. -1.
         22   -1    0    0    0    0 -0.00000000000E+00 -0.00000000000E+00 -0.31242532241E+02  0.31242532241E+02  0.00000000000E+00 0.  1.
         13    1    1    2    0    0 -0.10980612501E+02 -0.32615758545E+01 -0.23240637469E+02  0.25910424967E+02  0.10566000000E+00 0.  1.
        996    1    1    2    0    0  0.10980612501E+02  0.32615758545E+01  0.91998049415E+02  0.10533210728E+03  0.50000000000E+02 0.  0.
<mgrwt>
<rscale>  0 0.51295338E+02</rscale>
<asrwt>0</asrwt>
<pdfrwt beam="1">  1       13 0.10000000E+01 0.51295338E+02</pdfrwt>
<pdfrwt beam="2">  1       22 0.31242551E+00 0.51295338E+02</pdfrwt>
<totfact> 0.19194296E-01</totfact>
</mgrwt>
</event>
<event>
 4    1  0.2486873E+000  0.5143218E+02  0.7957747E-01  0.1437766E+00
         13   -1    0    0    0    0  0.00000000000E+00  0.00000000000E+00  0.99999944180E+02  0.10000000000E+03  0.10566000000E+00 0.  1.
         22   -1    0    0    0    0 -0.00000000000E+00 -0.00000000000E+00 -0.12374455153E+02  0.12374455153E+02  0.00000000000E+00 0.  1.
         13    1    1    2    0    0  0.10387674768E+02  0.61126923003E+01  0.16172155387E+01  0.12161222981E+02  0.10566000000E+00 0. -1.
        996    1    1    2    0    0 -0.10387674768E+02 -0.61126923003E+01  0.86008273488E+02  0.10021323217E+03  0.50000000000E+02 0.  0.
<mgrwt>
<rscale>  0 0.51432177E+02</rscale>
<asrwt>0</asrwt>
<pdfrwt beam="1">  1       13 0.10000000E+01 0.51432177E+02</pdfrwt>
<pdfrwt beam="2">  1       22 0.12374480E+00 0.51432177E+02</pdfrwt>
<totfact> 0.10239678E+00</totfact>
</mgrwt>
</event>
<event>
 4    1  0.2486873E+000  0.5212653E+02  0.7957747E-01  0.1434198E+00
         13   -1    0    0    0    0  0.00000000000E+00  0.00000000000E+00  0.99999944169E+02  0.99999999989E+02  0.10566000000E+00 0. -1.
         22   -1    0    0    0    0 -0.00000000000E+00 -0.00000000000E+00 -0.29863151288E+02  0.29863151288E+02  0.00000000000E+00 0.  1.
         13    1    1    2    0    0  0.14387535734E+02 -0.31896759487E+01 -0.20534822770E+02  0.25275785396E+02  0.10566000000E+00 0.  1.
        996    1    1    2    0    0 -0.14387535734E+02  0.31896759487E+01  0.90671615651E+02  0.10458736588E+03  0.50000000000E+02 0.  0.
<mgrwt>
<rscale>  0 0.52126531E+02</rscale>
<asrwt>0</asrwt>
<pdfrwt beam="1">  1       13 0.10000000E+01 0.52126531E+02</pdfrwt>
<pdfrwt beam="2">  1       22 0.29863171E+00 0.52126531E+02</pdfrwt>
<totfact> 0.20884631E-01</totfact>
</mgrwt>
</event>
<event>
 4    1  0.2486873E+000  0.6547296E+02  0.7957747E-01  0.1376201E+00
         13   -1    0    0    0    0  0.00000000000E+00  0.00000000000E+00  0.99999944182E+02  0.10000000000E+03  0.10566000000E+00 0.  1.
         22   -1    0    0    0    0 -0.00000000000E+00 -0.00000000000E+00 -0.29744112752E+02  0.29744112752E+02  0.00000000000E+00 0. -1.
         13    1    1    2    0    0 -0.60667570381E+01  0.41831847928E+02  0.17864267162E+02  0.45889565778E+02  0.10566000000E+00 0. -1.
        996    1    1    2    0    0  0.60667570381E+01 -0.41831847928E+02  0.52391564268E+02  0.83854546976E+02  0.50000000000E+02 0.  0.
<mgrwt>
<rscale>  0 0.65472964E+02</rscale>
<asrwt>0</asrwt>
<pdfrwt beam="1">  1       13 0.10000000E+01 0.65472964E+02</pdfrwt>
<pdfrwt beam="2">  1       22 0.29744132E+00 0.65472964E+02</pdfrwt>
<totfact> 0.21374358E-01</totfact>
</mgrwt>
</event>
<event>
 4    1  0.2486873E+000  0.5118519E+02  0.7957747E-01  0.1439052E+00
         13   -1    0    0    0    0  0.00000000000E+00  0.00000000000E+00  0.99999944181E+02  0.10000000000E+03  0.10566000000E+00 0. -1.
         22   -1    0    0    0    0 -0.00000000000E+00 -0.00000000000E+00 -0.16020838117E+02  0.16020838117E+02  0.00000000000E+00 0.  1.
         13    1    1    2    0    0 -0.56163982203E+01  0.94010688321E+01 -0.60107646382E+01  0.12492576985E+02  0.10566000000E+00 0.  1.
        996    1    1    2    0    0  0.56163982203E+01 -0.94010688321E+01  0.89989870703E+02  0.10352826113E+03  0.50000000000E+02 0.  0.
<mgrwt>
<rscale>  0 0.51185193E+02</rscale>
<asrwt>0</asrwt>
<pdfrwt beam="1">  1       13 0.10000000E+01 0.51185193E+02</pdfrwt>
<pdfrwt beam="2">  1       22 0.16020862E+00 0.51185193E+02</pdfrwt>
<totfact> 0.67264703E-01</totfact>
</mgrwt>
</event>
<event>
 4    1  0.2486873E+000  0.5281181E+02  0.7957747E-01  0.1430740E+00
         13   -1    0    0    0    0  0.00000000000E+00  0.00000000000E+00  0.99999944180E+02  0.10000000000E+03  0.10566000000E+00 0.  1.
         22   -1    0    0    0    0 -0.00000000000E+00 -0.00000000000E+00 -0.15527034731E+02  0.15527034731E+02  0.00000000000E+00 0. -1.
         13    1    1    2    0    0  0.85696596627E+01 -0.14684960237E+02  0.13635443754E+01  0.17057477574E+02  0.10566000000E+00 0. -1.
        996    1    1    2    0    0 -0.85696596627E+01  0.14684960237E+02  0.83109365073E+02  0.98469557158E+02  0.50000000000E+02 0.  0.
<mgrwt>
<rscale>  0 0.52811809E+02</rscale>
<asrwt>0</asrwt>
<pdfrwt beam="1">  1       13 0.10000000E+01 0.52811809E+02</pdfrwt>
<pdfrwt beam="2">  1       22 0.15527058E+00 0.52811809E+02</pdfrwt>
<totfact> 0.71172203E-01</totfact>
</mgrwt>
</event>
<event>
 4    1  0.2486873E+000  0.5118194E+02  0.7957747E-01  0.1439069E+00
         13   -1    0    0    0    0  0.00000000000E+00  0.00000000000E+00  0.99999944181E+02  0.10000000000E+03  0.10566000000E+00 0.  1.
         22   -1    0    0    0    0 -0.00000000000E+00 -0.00000000000E+00 -0.11984126954E+02  0.11984126954E+02  0.00000000000E+00 0.  1.
         13    1    1    2    0    0 -0.10934262065E+02  0.18146128114E+00  0.93533935459E+00  0.10976203298E+02  0.10566000000E+00 0. -1.
        996    1    1    2    0    0  0.10934262065E+02 -0.18146128114E+00  0.87080477872E+02  0.10100792366E+03  0.50000000000E+02 0.  0.
<mgrwt>
<rscale>  0 0.51181940E+02</rscale>
<asrwt>0</asrwt>
<pdfrwt beam="1">  1       13 0.10000000E+01 0.51181940E+02</pdfrwt>
<pdfrwt beam="2">  1       22 0.11984152E+00 0.51181940E+02</pdfrwt>
<totfact> 0.10751360E+00</totfact>
</mgrwt>
</event>
<event>
 4    1  0.2486873E+000  0.5343445E+02  0.7957747E-01  0.1427651E+00
         13   -1    0    0    0    0  0.00000000000E+00  0.00000000000E+00  0.99999944176E+02  0.99999999996E+02  0.10566000000E+00 0. -1.
         22   -1    0    0    0    0 -0.00000000000E+00 -0.00000000000E+00 -0.17959848867E+02  0.17959848867E+02  0.00000000000E+00 0.  1.
         13    1    1    2    0    0  0.18325115819E+02  0.44079746582E+01 -0.13744061760E+01  0.18898155115E+02  0.10566000000E+00 0.  1.
        996    1    1    2    0    0 -0.18325115819E+02 -0.44079746582E+01  0.83414501485E+02  0.99061693748E+02  0.50000000000E+02 0.  0.
<mgrwt>
<rscale>  0 0.53434447E+02</rscale>
<asrwt>0</asrwt>
<pdfrwt beam="1">  1       13 0.10000000E+01 0.53434447E+02</pdfrwt>
<pdfrwt beam="2">  1       22 0.17959872E+00 0.53434447E+02</pdfrwt>
<totfact> 0.55308328E-01</totfact>
</mgrwt>
</event>
<event>
 4    1  0.2486873E+000  0.5114415E+02  0.7957747E-01  0.1439266E+00
         13   -1    0    0    0    0  0.00000000000E+00  0.00000000000E+00  0.99999944171E+02  0.99999999991E+02  0.10566000000E+00 0.  1.
         22   -1    0    0    0    0 -0.00000000000E+00 -0.00000000000E+00 -0.97830954628E+01  0.97830954628E+01  0.00000000000E+00 0.  1.
         13    1    1    2    0    0  0.78009933543E+01  0.74073510750E+01  0.10246180847E+02  0.14856639366E+02  0.10566000000E+00 0. -1.
        996    1    1    2    0    0 -0.78009933543E+01 -0.74073510750E+01  0.79970667862E+02  0.94926456089E+02  0.50000000000E+02 0.  0.
<mgrwt>
<rscale>  0 0.51144153E+02</rscale>
<asrwt>0</asrwt>
<pdfrwt beam="1">  1       13 0.10000000E+01 0.51144153E+02</pdfrwt>
<pdfrwt beam="2">  1       22 0.97831206E-01 0.51144153E+02</pdfrwt>
<totfact> 0.14521254E+00</totfact>
</mgrwt>
</event>
<event>
 4    1  0.2486873E+000  0.5276218E+02  0.7957747E-01  0.1430988E+00
         13   -1    0    0    0    0  0.00000000000E+00  0.00000000000E+00  0.99999944181E+02  0.10000000000E+03  0.10566000000E+00 0.  1.
         22   -1    0    0    0    0 -0.00000000000E+00 -0.00000000000E+00 -0.12179224632E+02  0.12179224632E+02  0.00000000000E+00 0.  1.
         13    1    1    2    0    0 -0.14019712924E+02 -0.93431813633E+01  0.24897934184E+02  0.30062695806E+02  0.10566000000E+00 0. -1.
        996    1    1    2    0    0  0.14019712924E+02  0.93431813633E+01  0.62922785365E+02  0.82116528826E+02  0.50000000000E+02 0.  0.
<mgrwt>
<rscale>  0 0.52762178E+02</rscale>
<asrwt>0</asrwt>
<pdfrwt beam="1">  1       13 0.10000000E+01 0.52762178E+02</pdfrwt>
<pdfrwt beam="2">  1       22 0.12179249E+00 0.52762178E+02</pdfrwt>
<totfact> 0.10525102E+00</totfact>
</mgrwt>
</event>
<event>
 4    1  0.2486873E+000  0.5197861E+02  0.7957747E-01  0.1434953E+00
         13   -1    0    0    0    0  0.00000000000E+00  0.00000000000E+00  0.99999944179E+02  0.99999999999E+02  0.10566000000E+00 0.  1.
         22   -1    0    0    0    0 -0.00000000000E+00 -0.00000000000E+00 -0.19828821957E+02  0.19828821957E+02  0.00000000000E+00 0. -1.
         13    1    1    2    0    0 -0.13820932082E+02  0.32799541453E+01 -0.88552020681E+01  0.16739236258E+02  0.10566000000E+00 0. -1.
        996    1    1    2    0    0  0.13820932082E+02 -0.32799541453E+01  0.89026324290E+02  0.10308958570E+03  0.50000000000E+02 0.  0.
<mgrwt>
<rscale>  0 0.51978614E+02</rscale>
<asrwt>0</asrwt>
<pdfrwt beam="1">  1       13 0.10000000E+01 0.51978614E+02</pdfrwt>
<pdfrwt beam="2">  1       22 0.19828844E+00 0.51978614E+02</pdfrwt>
<totfact> 0.46037325E-01</totfact>
</mgrwt>
</event>
<event>
 4    1  0.2486873E+000  0.7928078E+02  0.7957747E-01  0.1331105E+00
         13   -1    0    0    0    0  0.00000000000E+00  0.00000000000E+00  0.99999944170E+02  0.99999999990E+02  0.10566000000E+00 0.  1.
         22   -1    0    0    0    0 -0.00000000000E+00 -0.00000000000E+00 -0.69122755182E+02  0.69122755182E+02  0.00000000000E+00 0. -1.
         13    1    1    2    0    0  0.61448423860E+02 -0.30874762205E+01 -0.30678771520E+02  0.68750559927E+02  0.10566000000E+00 0. -1.
        996    1    1    2    0    0 -0.61448423860E+02  0.30874762205E+01  0.61555960507E+02  0.10037219524E+03  0.50000000000E+02 0.  0.
<mgrwt>
<rscale>  0 0.79280775E+02</rscale>
<asrwt>0</asrwt>
<pdfrwt beam="1">  1       13 0.10000000E+01 0.79280775E+02</pdfrwt>
<pdfrwt beam="2">  1       22 0.69122764E+00 0.79280775E+02</pdfrwt>
<totfact> 0.78880042E-02</totfact>
</mgrwt>
</event>
<event>
 4    1  0.2486873E+000  0.5220056E+02  0.7957747E-01  0.1433821E+00
         13   -1    0    0    0    0  0.00000000000E+00  0.00000000000E+00  0.99999944185E+02  0.10000000000E+03  0.10566000000E+00 0.  1.
         22   -1    0    0    0    0 -0.00000000000E+00 -0.00000000000E+00 -0.22841005363E+02  0.22841005363E+02  0.00000000000E+00 0. -1.
         13    1    1    2    0    0 -0.32467879651E+01 -0.14640938963E+02 -0.12213150310E+02  0.19340913379E+02  0.10566000000E+00 0. -1.
        996    1    1    2    0    0  0.32467879651E+01  0.14640938963E+02  0.89372089132E+02  0.10350009199E+03  0.50000000000E+02 0.  0.
<mgrwt>
<rscale>  0 0.52200563E+02</rscale>
<asrwt>0</asrwt>
<pdfrwt beam="1">  1       13 0.10000000E+01 0.52200563E+02</pdfrwt>
<pdfrwt beam="2">  1       22 0.22841027E+00 0.52200563E+02</pdfrwt>
<totfact> 0.35188662E-01</totfact>
</mgrwt>
</event>
<event>
 4    1  0.2486873E+000  0.5120641E+02  0.7957747E-01  0.1438941E+00
         13   -1    0    0    0    0  0.00000000000E+00  0.00000000000E+00  0.99999944174E+02  0.99999999995E+02  0.10566000000E+00 0. -1.
         22   -1    0    0    0    0 -0.00000000000E+00 -0.00000000000E+00 -0.32767134378E+02  0.32767134378E+02  0.00000000000E+00 0.  1.
         13    1    1    2    0    0 -0.92949559567E+01 -0.59749494355E+01 -0.24966375643E+02  0.27302514605E+02  0.10566000000E+00 0.  1.
        996    1    1    2    0    0  0.92949559567E+01  0.59749494355E+01  0.92199185439E+02  0.10546461977E+03  0.50000000000E+02 0.  0.
<mgrwt>
<rscale>  0 0.51206408E+02</rscale>
<asrwt>0</asrwt>
<pdfrwt beam="1">  1       13 0.10000000E+01 0.51206408E+02</pdfrwt>
<pdfrwt beam="2">  1       22 0.32767153E+00 0.51206408E+02</pdfrwt>
<totfact> 0.17621752E-01</totfact>
</mgrwt>
</event>
<event>
 4    1  0.2486873E+000  0.5297371E+02  0.7957747E-01  0.1429932E+00
         13   -1    0    0    0    0  0.00000000000E+00  0.00000000000E+00  0.99999944181E+02  0.10000000000E+03  0.10566000000E+00 0. -1.
         22   -1    0    0    0    0 -0.00000000000E+00 -0.00000000000E+00 -0.13290124847E+02  0.13290124847E+02  0.00000000000E+00 0.  1.
         13    1    1    2    0    0  0.80061876798E+01  0.15560028614E+02  0.10275077919E+02  0.20292903240E+02  0.10566000000E+00 0.  1.
        996    1    1    2    0    0 -0.80061876798E+01 -0.15560028614E+02  0.76434741416E+02  0.92997221608E+02  0.50000000000E+02 0.  0.
<mgrwt>
<rscale>  0 0.52973706E+02</rscale>
<asrwt>0</asrwt>
<pdfrwt beam="1">  1       13 0.10000000E+01 0.52973706E+02</pdfrwt>
<pdfrwt beam="2">  1       22 0.13290149E+00 0.52973706E+02</pdfrwt>
<totfact> 0.91859257E-01</totfact>
</mgrwt>
</event>
<event>
 4    1  0.2486873E+000  0.5157381E+02  0.7957747E-01  0.1437033E+00
         13   -1    0    0    0    0  0.00000000000E+00  0.00000000000E+00  0.99999944177E+02  0.99999999997E+02  0.10566000000E+00 0. -1.
         22   -1    0    0    0    0 -0.00000000000E+00 -0.00000000000E+00 -0.14722088502E+02  0.14722088502E+02  0.00000000000E+00 0. -1.
         13    1    1    2    0    0 -0.33019506408E+01 -0.12204728776E+02 -0.25242580982E+01  0.12893460572E+02  0.10566000000E+00 0.  1.
        996    1    1    2    0    0  0.33019506408E+01  0.12204728776E+02  0.87802113773E+02  0.10182862793E+03  0.50000000000E+02 0.  0.
<mgrwt>
<rscale>  0 0.51573814E+02</rscale>
<asrwt>0</asrwt>
<pdfrwt beam="1">  1       13 0.10000000E+01 0.51573814E+02</pdfrwt>
<pdfrwt beam="2">  1       22 0.14722112E+00 0.51573814E+02</pdfrwt>
<totfact> 0.77596446E-01</totfact>
</mgrwt>
</event>
<event>
 4    1  0.2486873E+000  0.5104464E+02  0.7957747E-01  0.1439787E+00
         13   -1    0    0    0    0  0.00000000000E+00  0.00000000000E+00  0.99999944186E+02  0.10000000001E+03  0.10566000000E+00 0. -1.
         22   -1    0    0    0    0 -0.00000000000E+00 -0.00000000000E+00 -0.11620266208E+02  0.11620266208E+02  0.00000000000E+00 0. -1.
         13    1    1    2    0    0 -0.96993534112E+01 -0.33878548634E+01  0.86996090886E+00  0.10311305116E+02  0.10566000000E+00 0.  1.
        996    1    1    2    0    0  0.96993534112E+01  0.33878548634E+01  0.87509717070E+02  0.10130896110E+03  0.50000000000E+02 0.  0.
<mgrwt>
<rscale>  0 0.51044637E+02</rscale>
<asrwt>0</asrwt>
<pdfrwt beam="1">  1       13 0.10000000E+01 0.51044637E+02</pdfrwt>
<pdfrwt beam="2">  1       22 0.11620291E+00 0.51044637E+02</pdfrwt>
<totfact> 0.11264115E+00</totfact>
</mgrwt>
</event>
<event>
 4    1  0.2486873E+000  0.5514782E+02  0.7957747E-01  0.1419401E+00
         13   -1    0    0    0    0  0.00000000000E+00  0.00000000000E+00  0.99999944168E+02  0.99999999988E+02  0.10566000000E+00 0. -1.
         22   -1    0    0    0    0 -0.00000000000E+00 -0.00000000000E+00 -0.21413058509E+02  0.21413058509E+02  0.00000000000E+00 0. -1.
         13    1    1    2    0    0  0.20839385001E+02 -0.10344203562E+02 -0.24467439649E+01  0.23394021344E+02  0.10566000000E+00 0.  1.
        996    1    1    2    0    0 -0.20839385001E+02  0.10344203562E+02  0.81033629624E+02  0.98019037154E+02  0.50000000000E+02 0.  0.
<mgrwt>
<rscale>  0 0.55147824E+02</rscale>
<asrwt>0</asrwt>
<pdfrwt beam="1">  1       13 0.10000000E+01 0.55147824E+02</pdfrwt>
<pdfrwt beam="2">  1       22 0.21413080E+00 0.55147824E+02</pdfrwt>
<totfact> 0.40042368E-01</totfact>
</mgrwt>
</event>
<event>
 4    1  0.2486873E+000  0.5202879E+02  0.7957747E-01  0.1434696E+00
         13   -1    0    0    0    0  0.00000000000E+00  0.00000000000E+00  0.99999944176E+02  0.99999999996E+02  0.10566000000E+00 0.  1.
         22   -1    0    0    0    0 -0.00000000000E+00 -0.00000000000E+00 -0.11049936152E+02  0.11049936152E+02  0.00000000000E+00 0.  1.
         13    1    1    2    0    0 -0.50958989685E+01  0.13454606341E+02  0.17273198274E+02  0.22480417272E+02  0.10566000000E+00 0. -1.
        996    1    1    2    0    0  0.50958989685E+01 -0.13454606341E+02  0.71676809750E+02  0.88569518876E+02  0.50000000000E+02 0.  0.
<mgrwt>
<rscale>  0 0.52028786E+02</rscale>
<asrwt>0</asrwt>
<pdfrwt beam="1">  1       13 0.10000000E+01 0.52028786E+02</pdfrwt>
<pdfrwt beam="2">  1       22 0.11049961E+00 0.52028786E+02</pdfrwt>
<totfact> 0.12175668E+00</totfact>
</mgrwt>
</event>
<event>
 4    1  0.2486873E+000  0.5308126E+02  0.7957747E-01  0.1429397E+00
         13   -1    0    0    0    0  0.00000000000E+00  0.00000000000E+00  0.99999944179E+02  0.10000000000E+03  0.10566000000E+00 0.  1.
         22   -1    0    0    0    0 -0.00000000000E+00 -0.00000000000E+00 -0.21043541828E+02  0.21043541828E+02  0.00000000000E+00 0. -1.
         13    1    1    2    0    0  0.40396283840E+01 -0.17358031250E+02 -0.77059838425E+01  0.19416827686E+02  0.10566000000E+00 0. -1.
        996    1    1    2    0    0 -0.40396283840E+01  0.17358031250E+02  0.86662386194E+02  0.10162671414E+03  0.50000000000E+02 0.  0.
<mgrwt>
<rscale>  0 0.53081257E+02</rscale>
<asrwt>0</asrwt>
<pdfrwt beam="1">  1       13 0.10000000E+01 0.53081257E+02</pdfrwt>
<pdfrwt beam="2">  1       22 0.21043564E+00 0.53081257E+02</pdfrwt>
<totfact> 0.41249748E-01</totfact>
</mgrwt>
</event>
<event>
 4    1  0.2486873E+000  0.6767446E+02  0.7957747E-01  0.1368185E+00
         13   -1    0    0    0    0  0.00000000000E+00  0.00000000000E+00  0.99999944184E+02  0.10000000000E+03  0.10566000000E+00 0.  1.
         22   -1    0    0    0    0 -0.00000000000E+00 -0.00000000000E+00 -0.33870404175E+02  0.33870404175E+02  0.00000000000E+00 0. -1.
         13    1    1    2    0    0 -0.44980320900E+02  0.75235162861E+01  0.42070506135E+02  0.62046524609E+02  0.10566000000E+00 0. -1.
        996    1    1    2    0    0  0.44980320900E+02 -0.75235162861E+01  0.24059033874E+02  0.71823879570E+02  0.50000000000E+02 0.  0.
<mgrwt>
<rscale>  0 0.67674460E+02</rscale>
<asrwt>0</asrwt>
<pdfrwt beam="1">  1       13 0.10000000E+01 0.67674460E+02</pdfrwt>
<pdfrwt beam="2">  1       22 0.33870423E+00 0.67674460E+02</pdfrwt>
<totfact> 0.16891655E-01</totfact>
</mgrwt>
</event>
<event>
 4    1  0.2486873E+000  0.5221776E+02  0.7957747E-01  0.1433734E+00
         13   -1    0    0    0    0  0.00000000000E+00  0.00000000000E+00  0.99999944185E+02  0.10000000000E+03  0.10566000000E+00 0.  1.
         22   -1    0    0    0    0 -0.00000000000E+00 -0.00000000000E+00 -0.11346473671E+02  0.11346473671E+02  0.00000000000E+00 0.  1.
         13    1    1    2    0    0 -0.13725427347E+02  0.61893025059E+01  0.22370447283E+02  0.26965587274E+02  0.10566000000E+00 0. -1.
        996    1    1    2    0    0  0.13725427347E+02 -0.61893025059E+01  0.66283023231E+02  0.84380886402E+02  0.50000000000E+02 0.  0.
<mgrwt>
<rscale>  0 0.52217763E+02</rscale>
<asrwt>0</asrwt>
<pdfrwt beam="1">  1       13 0.10000000E+01 0.52217763E+02</pdfrwt>
<pdfrwt beam="2">  1       22 0.11346498E+00 0.52217763E+02</pdfrwt>
<totfact> 0.11707761E+00</totfact>
</mgrwt>
</event>
<event>
 4    1  0.2486873E+000  0.5368496E+02  0.7957747E-01  0.1426422E+00
         13   -1    0    0    0    0  0.00000000000E+00  0.00000000000E+00  0.99999944178E+02  0.99999999998E+02  0.10566000000E+00 0. -1.
         22   -1    0    0    0    0 -0.00000000000E+00 -0.00000000000E+00 -0.57316482803E+02  0.57316482803E+02  0.00000000000E+00 0.  1.
         13    1    1    2    0    0  0.15000358296E+02  0.12532508726E+02 -0.48059367531E+02  0.51882448819E+02  0.10566000000E+00 0.  1.
        996    1    1    2    0    0 -0.15000358296E+02 -0.12532508726E+02  0.90742828906E+02  0.10543403398E+03  0.50000000000E+02 0.  0.
<mgrwt>
<rscale>  0 0.53684956E+02</rscale>
<asrwt>0</asrwt>
<pdfrwt beam="1">  1       13 0.10000000E+01 0.53684956E+02</pdfrwt>
<pdfrwt beam="2">  1       22 0.57316495E+00 0.53684956E+02</pdfrwt>
<totfact> 0.57825214E-02</totfact>
</mgrwt>
</event>
<event>
 4    1  0.2486873E+000  0.5320482E+02  0.7957747E-01  0.1428784E+00
         13   -1    0    0    0    0  0.00000000000E+00  0.00000000000E+00  0.99999944174E+02  0.99999999994E+02  0.10566000000E+00 0. -1.
         22   -1    0    0    0    0 -0.00000000000E+00 -0.00000000000E+00 -0.16971568276E+02  0.16971568276E+02  0.00000000000E+00 0. -1.
         13    1    1    2    0    0 -0.97794880037E+01  0.15333427676E+02 -0.20283001742E+00  0.18188037111E+02  0.10566000000E+00 0.  1.
        996    1    1    2    0    0  0.97794880037E+01 -0.15333427676E+02  0.83231205916E+02  0.98783531158E+02  0.50000000000E+02 0.  0.
<mgrwt>
<rscale>  0 0.53204815E+02</rscale>
<asrwt>0</asrwt>
<pdfrwt beam="1">  1       13 0.10000000E+01 0.53204815E+02</pdfrwt>
<pdfrwt beam="2">  1       22 0.16971591E+00 0.53204815E+02</pdfrwt>
<totfact> 0.61117868E-01</totfact>
</mgrwt>
</event>
<event>
 4    1  0.2486873E+000  0.5100990E+02  0.7957747E-01  0.1439969E+00
         13   -1    0    0    0    0  0.00000000000E+00  0.00000000000E+00  0.99999944173E+02  0.99999999994E+02  0.10566000000E+00 0.  1.
         22   -1    0    0    0    0 -0.00000000000E+00 -0.00000000000E+00 -0.94315078052E+01  0.94315078052E+01  0.00000000000E+00 0.  1.
         13    1    1    2    0    0 -0.65236818444E+01  0.77104474673E+01  0.19378936134E+02  0.21853232133E+02  0.10566000000E+00 0. -1.
        996    1    1    2    0    0  0.65236818444E+01 -0.77104474673E+01  0.71189500235E+02  0.87578275666E+02  0.50000000000E+02 0.  0.
<mgrwt>
<rscale>  0 0.51009895E+02</rscale>
<asrwt>0</asrwt>
<pdfrwt beam="1">  1       13 0.10000000E+01 0.51009895E+02</pdfrwt>
<pdfrwt beam="2">  1       22 0.94315331E-01 0.51009895E+02</pdfrwt>
<totfact> 0.15297962E+00</totfact>
</mgrwt>
</event>
<event>
 4    1  0.2486873E+000  0.5104725E+02  0.7957747E-01  0.1439773E+00
         13   -1    0    0    0    0  0.00000000000E+00  0.00000000000E+00  0.99999944177E+02  0.99999999997E+02  0.10566000000E+00 0.  1.
         22   -1    0    0    0    0 -0.00000000000E+00 -0.00000000000E+00 -0.96086343787E+01  0.96086343787E+01  0.00000000000E+00 0.  1.
         13    1    1    2    0    0  0.85588564433E+01 -0.57068221520E+01  0.97844335959E+01  0.14197469758E+02  0.10566000000E+00 0. -1.
        996    1    1    2    0    0 -0.85588564433E+01  0.57068221520E+01  0.80606876203E+02  0.95411164618E+02  0.50000000000E+02 0.  0.
<mgrwt>
<rscale>  0 0.51047251E+02</rscale>
<asrwt>0</asrwt>
<pdfrwt beam="1">  1       13 0.10000000E+01 0.51047251E+02</pdfrwt>
<pdfrwt beam="2">  1       22 0.96086596E-01 0.51047251E+02</pdfrwt>
<totfact> 0.14897854E+00</totfact>
</mgrwt>
</event>
<event>
 4    1  0.2486873E+000  0.5112578E+02  0.7957747E-01  0.1439362E+00
         13   -1    0    0    0    0  0.00000000000E+00  0.00000000000E+00  0.99999944172E+02  0.99999999992E+02  0.10566000000E+00 0. -1.
         22   -1    0    0    0    0 -0.00000000000E+00 -0.00000000000E+00 -0.35709265553E+02  0.35709265553E+02  0.00000000000E+00 0.  1.
         13    1    1    2    0    0 -0.84588706159E+01 -0.65032717143E+01 -0.28132347399E+02  0.30087957214E+02  0.10566000000E+00 0.  1.
        996    1    1    2    0    0  0.84588706159E+01  0.65032717143E+01  0.92423026018E+02  0.10562130833E+03  0.50000000000E+02 0.  0.
<mgrwt>
<rscale>  0 0.51125777E+02</rscale>
<asrwt>0</asrwt>
<pdfrwt beam="1">  1       13 0.10000000E+01 0.51125777E+02</pdfrwt>
<pdfrwt beam="2">  1       22 0.35709284E+00 0.51125777E+02</pdfrwt>
<totfact> 0.15160750E-01</totfact>
</mgrwt>
</event>
<event>
 4    1  0.2486873E+000  0.5349601E+02  0.7957747E-01  0.1427348E+00
         13   -1    0    0    0    0  0.00000000000E+00  0.00000000000E+00  0.99999944178E+02  0.99999999998E+02  0.10566000000E+00 0. -1.
         22   -1    0    0    0    0 -0.00000000000E+00 -0.00000000000E+00 -0.25885998497E+02  0.25885998497E+02  0.00000000000E+00 0.  1.
         13    1    1    2    0    0 -0.13616379598E+02  0.13282222753E+02 -0.13433965373E+02  0.23287460667E+02  0.10566000000E+00 0.  1.
        996    1    1    2    0    0  0.13616379598E+02 -0.13282222753E+02  0.87547911054E+02  0.10259853783E+03  0.50000000000E+02 0.  0.
<mgrwt>
<rscale>  0 0.53496011E+02</rscale>
<asrwt>0</asrwt>
<pdfrwt beam="1">  1       13 0.10000000E+01 0.53496011E+02</pdfrwt>
<pdfrwt beam="2">  1       22 0.25886019E+00 0.53496011E+02</pdfrwt>
<totfact> 0.27588844E-01</totfact>
</mgrwt>
</event>
<event>
 4    1  0.2486873E+000  0.7151877E+02  0.7957747E-01  0.1355003E+00
         13   -1    0    0    0    0  0.00000000000E+00  0.00000000000E+00  0.99999944185E+02  0.10000000000E+03  0.10566000000E+00 0.  1.
         22   -1    0    0    0    0 -0.00000000000E+00 -0.00000000000E+00 -0.42689587545E+02  0.42689587545E+02  0.00000000000E+00 0. -1.
         13    1    1    2    0    0 -0.79543656336E+01 -0.50513977968E+02  0.15280258458E+00  0.51136761878E+02  0.10566000000E+00 0. -1.
        996    1    1    2    0    0  0.79543656336E+01  0.50513977968E+02  0.57157554056E+02  0.91552825671E+02  0.50000000000E+02 0.  0.
<mgrwt>
<rscale>  0 0.71518766E+02</rscale>
<asrwt>0</asrwt>
<pdfrwt beam="1">  1       13 0.10000000E+01 0.71518766E+02</pdfrwt>
<pdfrwt beam="2">  1       22 0.42689604E+00 0.71518766E+02</pdfrwt>
<totfact> 0.10983514E-01</totfact>
</mgrwt>
</event>
<event>
 4    1  0.2486873E+000  0.5125800E+02  0.7957747E-01  0.1438672E+00
         13   -1    0    0    0    0  0.00000000000E+00  0.00000000000E+00  0.99999944181E+02  0.10000000000E+03  0.10566000000E+00 0. -1.
         22   -1    0    0    0    0 -0.00000000000E+00 -0.00000000000E+00 -0.31027971369E+02  0.31027971369E+02  0.00000000000E+00 0.  1.
         13    1    1    2    0    0 -0.10333027093E+02 -0.45399272084E+01 -0.23065842311E+02  0.25679303603E+02  0.10566000000E+00 0.  1.
        996    1    1    2    0    0  0.10333027093E+02  0.45399272084E+01  0.92037815123E+02  0.10534866777E+03  0.50000000000E+02 0.  0.
<mgrwt>
<rscale>  0 0.51257998E+02</rscale>
<asrwt>0</asrwt>
<pdfrwt beam="1">  1       13 0.10000000E+01 0.51257998E+02</pdfrwt>
<pdfrwt beam="2">  1       22 0.31027991E+00 0.51257998E+02</pdfrwt>
<totfact> 0.19435775E-01</totfact>
</mgrwt>
</event>
<event>
 4    1  0.2486873E+000  0.5291953E+02  0.7957747E-01  0.1430202E+00
         13   -1    0    0    0    0  0.00000000000E+00  0.00000000000E+00  0.99999944178E+02  0.99999999998E+02  0.10566000000E+00 0.  1.
         22   -1    0    0    0    0 -0.00000000000E+00 -0.00000000000E+00 -0.12774203623E+02  0.12774203623E+02  0.00000000000E+00 0.  1.
         13    1    1    2    0    0 -0.34256408157E+01 -0.16992387084E+02  0.13248898839E+02  0.21817899035E+02  0.10566000000E+00 0. -1.
        996    1    1    2    0    0  0.34256408157E+01  0.16992387084E+02  0.73976841715E+02  0.90956304586E+02  0.50000000000E+02 0.  0.
<mgrwt>
<rscale>  0 0.52919526E+02</rscale>
<asrwt>0</asrwt>
<pdfrwt beam="1">  1       13 0.10000000E+01 0.52919526E+02</pdfrwt>
<pdfrwt beam="2">  1       22 0.12774228E+00 0.52919526E+02</pdfrwt>
<totfact> 0.97768940E-01</totfact>
</mgrwt>
</event>
<event>
 4    1  0.2486873E+000  0.5168206E+02  0.7957747E-01  0.1436475E+00
         13   -1    0    0    0    0  0.00000000000E+00  0.00000000000E+00  0.99999944176E+02  0.99999999996E+02  0.10566000000E+00 0. -1.
         22   -1    0    0    0    0 -0.00000000000E+00 -0.00000000000E+00 -0.12636159357E+02  0.12636159357E+02  0.00000000000E+00 0. -1.
         13    1    1    2    0    0 -0.10164771877E+02  0.82287506227E+01  0.41590279393E+02  0.43598135604E+02  0.10566000000E+00 0.  1.
        996    1    1    2    0    0  0.10164771877E+02 -0.82287506227E+01  0.45773505426E+02  0.69038023748E+02  0.50000000000E+02 0.  0.
<mgrwt>
<rscale>  0 0.51682056E+02</rscale>
<asrwt>0</asrwt>
<pdfrwt beam="1">  1       13 0.10000000E+01 0.51682056E+02</pdfrwt>
<pdfrwt beam="2">  1       22 0.12636184E+00 0.51682056E+02</pdfrwt>
<totfact> 0.99176321E-01</totfact>
</mgrwt>
</event>
<event>
 4    1  0.2486873E+000  0.5120232E+02  0.7957747E-01  0.1438962E+00
         13   -1    0    0    0    0  0.00000000000E+00  0.00000000000E+00  0.99999944183E+02  0.10000000000E+03  0.10566000000E+00 0.  1.
         22   -1    0    0    0    0 -0.00000000000E+00 -0.00000000000E+00 -0.37685924988E+02  0.37685924988E+02  0.00000000000E+00 0. -1.
         13    1    1    2    0    0  0.10290491383E+02 -0.39727677216E+01 -0.30087699816E+02  0.32046184493E+02  0.10566000000E+00 0. -1.
        996    1    1    2    0    0 -0.10290491383E+02  0.39727677216E+01  0.92401719011E+02  0.10563974050E+03  0.50000000000E+02 0.  0.
<mgrwt>
<rscale>  0 0.51202315E+02</rscale>
<asrwt>0</asrwt>
<pdfrwt beam="1">  1       13 0.10000000E+01 0.51202315E+02</pdfrwt>
<pdfrwt beam="2">  1       22 0.37685942E+00 0.51202315E+02</pdfrwt>
<totfact> 0.13788585E-01</totfact>
</mgrwt>
</event>
<event>
 4    1  0.2486873E+000  0.5163397E+02  0.7957747E-01  0.1436722E+00
         13   -1    0    0    0    0  0.00000000000E+00  0.00000000000E+00  0.99999944178E+02  0.99999999999E+02  0.10566000000E+00 0. -1.
         22   -1    0    0    0    0 -0.00000000000E+00 -0.00000000000E+00 -0.37491582658E+02  0.37491582658E+02  0.00000000000E+00 0.  1.
         13    1    1    2    0    0  0.84164344384E+01  0.97586111517E+01 -0.29384290845E+02  0.32086049504E+02  0.10566000000E+00 0.  1.
        996    1    1    2    0    0 -0.84164344384E+01 -0.97586111517E+01  0.91892652366E+02  0.10540553315E+03  0.50000000000E+02 0.  0.
<mgrwt>
<rscale>  0 0.51633970E+02</rscale>
<asrwt>0</asrwt>
<pdfrwt beam="1">  1       13 0.10000000E+01 0.51633970E+02</pdfrwt>
<pdfrwt beam="2">  1       22 0.37491600E+00 0.51633970E+02</pdfrwt>
<totfact> 0.13921867E-01</totfact>
</mgrwt>
</event>
<event>
 4    1  0.2486873E+000  0.5239675E+02  0.7957747E-01  0.1432827E+00
         13   -1    0    0    0    0  0.00000000000E+00  0.00000000000E+00  0.99999944182E+02  0.10000000000E+03  0.10566000000E+00 0. -1.
         22   -1    0    0    0    0 -0.00000000000E+00 -0.00000000000E+00 -0.18432374220E+02  0.18432374220E+02  0.00000000000E+00 0.  1.
         13    1    1    2    0    0  0.15418589560E+02  0.27724877680E+01 -0.56767927765E+01  0.16663034919E+02  0.10566000000E+00 0.  1.
        996    1    1    2    0    0 -0.15418589560E+02 -0.27724877680E+01  0.87244362739E+02  0.10176933930E+03  0.50000000000E+02 0.  0.
<mgrwt>
<rscale>  0 0.52396752E+02</rscale>
<asrwt>0</asrwt>
<pdfrwt beam="1">  1       13 0.10000000E+01 0.52396752E+02</pdfrwt>
<pdfrwt beam="2">  1       22 0.18432397E+00 0.52396752E+02</pdfrwt>
<totfact> 0.52679728E-01</totfact>
</mgrwt>
</event>
<event>
 4    1  0.2486873E+000  0.5103403E+02  0.7957747E-01  0.1439843E+00
         13   -1    0    0    0    0  0.00000000000E+00  0.00000000000E+00  0.99999944176E+02  0.99999999996E+02  0.10566000000E+00 0.  1.
         22   -1    0    0    0    0 -0.00000000000E+00 -0.00000000000E+00 -0.98896538886E+01  0.98896538886E+01  0.00000000000E+00 0.  1.
         13    1    1    2    0    0  0.99157544923E+01 -0.24799072358E+01  0.70970720765E+01  0.12443943231E+02  0.10566000000E+00 0. -1.
        996    1    1    2    0    0 -0.99157544923E+01  0.24799072358E+01  0.83013218211E+02  0.97445710654E+02  0.50000000000E+02 0.  0.
<mgrwt>
<rscale>  0 0.51034029E+02</rscale>
<asrwt>0</asrwt>
<pdfrwt beam="1">  1       13 0.10000000E+01 0.51034029E+02</pdfrwt>
<pdfrwt beam="2">  1       22 0.98896790E-01 0.51034029E+02</pdfrwt>
<totfact> 0.14292364E+00</totfact>
</mgrwt>
</event>
<event>
 4    1  0.2486873E+000  0.5917229E+02  0.7957747E-01  0.1401338E+00
         13   -1    0    0    0    0  0.00000000000E+00  0.00000000000E+00  0.99999944179E+02  0.10000000000E+03  0.10566000000E+00 0. -1.
         22   -1    0    0    0    0 -0.00000000000E+00 -0.00000000000E+00 -0.32518800225E+02  0.32518800225E+02  0.00000000000E+00 0.  1.
         13    1    1    2    0    0  0.17776233334E+01  0.31594296668E+02 -0.11640926696E+02  0.33717678821E+02  0.10566000000E+00 0.  1.
        996    1    1    2    0    0 -0.17776233334E+01 -0.31594296668E+02  0.79122070650E+02  0.98801121404E+02  0.50000000000E+02 0.  0.
<mgrwt>
<rscale>  0 0.59172287E+02</rscale>
<asrwt>0</asrwt>
<pdfrwt beam="1">  1       13 0.10000000E+01 0.59172287E+02</pdfrwt>
<pdfrwt beam="2">  1       22 0.32518819E+00 0.59172287E+02</pdfrwt>
<totfact> 0.18019207E-01</totfact>
</mgrwt>
</event>
<event>
 4    1  0.2486873E+000  0.5127815E+02  0.7957747E-01  0.1438567E+00
         13   -1    0    0    0    0  0.00000000000E+00  0.00000000000E+00  0.99999944171E+02  0.99999999991E+02  0.10566000000E+00 0. -1.
         22   -1    0    0    0    0 -0.00000000000E+00 -0.00000000000E+00 -0.65438373817E+02  0.65438373817E+02  0.00000000000E+00 0.  1.
         13    1    1    2    0    0  0.85317204537E+01  0.75271983024E+01 -0.58278252051E+02  0.59378571845E+02  0.10566000000E+00 0.  1.
        996    1    1    2    0    0 -0.85317204537E+01 -0.75271983024E+01  0.92839822405E+02  0.10605980196E+03  0.50000000000E+02 0.  0.
<mgrwt>
<rscale>  0 0.51278153E+02</rscale>
<asrwt>0</asrwt>
<pdfrwt beam="1">  1       13 0.10000000E+01 0.51278153E+02</pdfrwt>
<pdfrwt beam="2">  1       22 0.65438383E+00 0.51278153E+02</pdfrwt>
<totfact> 0.87020110E-02</totfact>
</mgrwt>
</event>
<event>
 4    1  0.2486873E+000  0.5106904E+02  0.7957747E-01  0.1439659E+00
         13   -1    0    0    0    0  0.00000000000E+00  0.00000000000E+00  0.99999944183E+02  0.10000000000E+03  0.10566000000E+00 0.  1.
         22   -1    0    0    0    0 -0.00000000000E+00 -0.00000000000E+00 -0.29303532542E+02  0.29303532542E+02  0.00000000000E+00 0. -1.
         13    1    1    2    0    0  0.19230071028E+01  0.10215124656E+02 -0.21515124428E+02  0.23894737313E+02  0.10566000000E+00 0. -1.
        996    1    1    2    0    0 -0.19230071028E+01 -0.10215124656E+02  0.92211536069E+02  0.10540879523E+03  0.50000000000E+02 0.  0.
<mgrwt>
<rscale>  0 0.51069039E+02</rscale>
<asrwt>0</asrwt>
<pdfrwt beam="1">  1       13 0.10000000E+01 0.51069039E+02</pdfrwt>
<pdfrwt beam="2">  1       22 0.29303552E+00 0.51069039E+02</pdfrwt>
<totfact> 0.21611810E-01</totfact>
</mgrwt>
</event>
<event>
 4    1  0.2486873E+000  0.5141098E+02  0.7957747E-01  0.1437876E+00
         13   -1    0    0    0    0  0.00000000000E+00  0.00000000000E+00  0.99999944176E+02  0.99999999996E+02  0.10566000000E+00 0. -1.
         22   -1    0    0    0    0 -0.00000000000E+00 -0.00000000000E+00 -0.12811679913E+02  0.12811679913E+02  0.00000000000E+00 0.  1.
         13    1    1    2    0    0  0.10100472248E+02 -0.64085013985E+01  0.43644191957E+00  0.11970383260E+02  0.10566000000E+00 0.  1.
        996    1    1    2    0    0 -0.10100472248E+02  0.64085013985E+01  0.86751822344E+02  0.10084129665E+03  0.50000000000E+02 0.  0.
<mgrwt>
<rscale>  0 0.51410976E+02</rscale>
<asrwt>0</asrwt>
<pdfrwt beam="1">  1       13 0.10000000E+01 0.51410976E+02</pdfrwt>
<pdfrwt beam="2">  1       22 0.12811704E+00 0.51410976E+02</pdfrwt>
<totfact> 0.97002928E-01</totfact>
</mgrwt>
</event>
<event>
 4    1  0.2486873E+000  0.7909120E+02  0.7957747E-01  0.1331650E+00
         13   -1    0    0    0    0  0.00000000000E+00  0.00000000000E+00  0.99999944175E+02  0.99999999995E+02  0.10566000000E+00 0. -1.
         22   -1    0    0    0    0 -0.00000000000E+00 -0.00000000000E+00 -0.50838499811E+02  0.50838499811E+02  0.00000000000E+00 0.  1.
         13    1    1    2    0    0  0.36740496136E+02 -0.49046438399E+02  0.83786343486E+01  0.61851676238E+02  0.10566000000E+00 0.  1.
        996    1    1    2    0    0 -0.36740496136E+02  0.49046438399E+02  0.40782810015E+02  0.88986823567E+02  0.50000000000E+02 0.  0.
<mgrwt>
<rscale>  0 0.79091195E+02</rscale>
<asrwt>0</asrwt>
<pdfrwt beam="1">  1       13 0.10000000E+01 0.79091195E+02</pdfrwt>
<pdfrwt beam="2">  1       22 0.50838514E+00 0.79091195E+02</pdfrwt>
<totfact> 0.71009206E-02</totfact>
</mgrwt>
</event>
<event>
 4    1  0.2486873E+000  0.5211482E+02  0.7957747E-01  0.1434257E+00
         13   -1    0    0    0    0  0.00000000000E+00  0.00000000000E+00  0.99999944179E+02  0.10000000000E+03  0.10566000000E+00 0. -1.
         22   -1    0    0    0    0 -0.00000000000E+00 -0.00000000000E+00 -0.12225646876E+02  0.12225646876E+02  0.00000000000E+00 0. -1.
         13    1    1    2    0    0 -0.28884060509E+01  0.14408731919E+02  0.74501040523E+01  0.16476336348E+02  0.10566000000E+00 0.  1.
        996    1    1    2    0    0  0.28884060509E+01 -0.14408731919E+02  0.80324193251E+02  0.95749310528E+02  0.50000000000E+02 0.  0.
<mgrwt>
<rscale>  0 0.52114820E+02</rscale>
<asrwt>0</asrwt>
<pdfrwt beam="1">  1       13 0.10000000E+01 0.52114820E+02</pdfrwt>
<pdfrwt beam="2">  1       22 0.12225671E+00 0.52114820E+02</pdfrwt>
<totfact> 0.10448684E+00</totfact>
</mgrwt>
</event>
<event>
 4    1  0.2486873E+000  0.5103851E+02  0.7957747E-01  0.1439819E+00
         13   -1    0    0    0    0  0.00000000000E+00  0.00000000000E+00  0.99999944180E+02  0.10000000000E+03  0.10566000000E+00 0.  1.
         22   -1    0    0    0    0 -0.00000000000E+00 -0.00000000000E+00 -0.15229470127E+02  0.15229470127E+02  0.00000000000E+00 0. -1.
         13    1    1    2    0    0 -0.56628297569E+01  0.85358938044E+01 -0.54271783376E+01  0.11592866455E+02  0.10566000000E+00 0. -1.
        996    1    1    2    0    0  0.56628297569E+01 -0.85358938044E+01  0.90197652391E+02  0.10363660367E+03  0.50000000000E+02 0.  0.
<mgrwt>
<rscale>  0 0.51038506E+02</rscale>
<asrwt>0</asrwt>
<pdfrwt beam="1">  1       13 0.10000000E+01 0.51038506E+02</pdfrwt>
<pdfrwt beam="2">  1       22 0.15229494E+00 0.51038506E+02</pdfrwt>
<totfact> 0.73262722E-01</totfact>
</mgrwt>
</event>
<event>
 4    1  0.2486873E+000  0.5364604E+02  0.7957747E-01  0.1426613E+00
         13   -1    0    0    0    0  0.00000000000E+00  0.00000000000E+00  0.99999944176E+02  0.99999999996E+02  0.10566000000E+00 0. -1.
         22   -1    0    0    0    0 -0.00000000000E+00 -0.00000000000E+00 -0.14600091242E+02  0.14600091242E+02  0.00000000000E+00 0. -1.
         13    1    1    2    0    0  0.16638853475E+02  0.10052157680E+02  0.94508804520E+01  0.21615448743E+02  0.10566000000E+00 0.  1.
        996    1    1    2    0    0 -0.16638853475E+02 -0.10052157680E+02  0.75948972482E+02  0.92984642495E+02  0.50000000000E+02 0.  0.
<mgrwt>
<rscale>  0 0.53646037E+02</rscale>
<asrwt>0</asrwt>
<pdfrwt beam="1">  1       13 0.10000000E+01 0.53646037E+02</pdfrwt>
<pdfrwt beam="2">  1       22 0.14600115E+00 0.53646037E+02</pdfrwt>
<totfact> 0.79002402E-01</totfact>
</mgrwt>
</event>
<event>
 4    1  0.2486873E+000  0.5316640E+02  0.7957747E-01  0.1428975E+00
         13   -1    0    0    0    0  0.00000000000E+00  0.00000000000E+00  0.99999944175E+02  0.99999999995E+02  0.10566000000E+00 0. -1.
         22   -1    0    0    0    0 -0.00000000000E+00 -0.00000000000E+00 -0.27918501258E+02  0.27918501258E+02  0.00000000000E+00 0.  1.
         13    1    1    2    0    0  0.73149081721E+01  0.16527510208E+02 -0.16587199930E+02  0.24531873977E+02  0.10566000000E+00 0.  1.
        996    1    1    2    0    0 -0.73149081721E+01 -0.16527510208E+02  0.88668642847E+02  0.10338662728E+03  0.50000000000E+02 0.  0.
<mgrwt>
<rscale>  0 0.53166404E+02</rscale>
<asrwt>0</asrwt>
<pdfrwt beam="1">  1       13 0.10000000E+01 0.53166404E+02</pdfrwt>
<pdfrwt beam="2">  1       22 0.27918521E+00 0.53166404E+02</pdfrwt>
<totfact> 0.23783598E-01</totfact>
</mgrwt>
</event>
<event>
 4    1  0.2486873E+000  0.5136599E+02  0.7957747E-01  0.1438110E+00
         13   -1    0    0    0    0  0.00000000000E+00  0.00000000000E+00  0.99999944182E+02  0.10000000000E+03  0.10566000000E+00 0. -1.
         22   -1    0    0    0    0 -0.00000000000E+00 -0.00000000000E+00 -0.13878265227E+02  0.13878265227E+02  0.00000000000E+00 0.  1.
         13    1    1    2    0    0  0.68921210652E+01  0.95375048430E+01 -0.19440556903E+01  0.11927105599E+02  0.10566000000E+00 0.  1.
        996    1    1    2    0    0 -0.68921210652E+01 -0.95375048430E+01  0.88065734645E+02  0.10195115963E+03  0.50000000000E+02 0.  0.
<mgrwt>
<rscale>  0 0.51365994E+02</rscale>
<asrwt>0</asrwt>
<pdfrwt beam="1">  1       13 0.10000000E+01 0.51365994E+02</pdfrwt>
<pdfrwt beam="2">  1       22 0.13878289E+00 0.51365994E+02</pdfrwt>
<totfact> 0.85412514E-01</totfact>
</mgrwt>
</event>
<event>
 4    1  0.2486873E+000  0.5099693E+02  0.7957747E-01  0.1440037E+00
         13   -1    0    0    0    0  0.00000000000E+00  0.00000000000E+00  0.99999944181E+02  0.10000000000E+03  0.10566000000E+00 0.  1.
         22   -1    0    0    0    0 -0.00000000000E+00 -0.00000000000E+00 -0.96808280597E+01  0.96808280597E+01  0.00000000000E+00 0.  1.
         13    1    1    2    0    0 -0.97510843650E+01  0.23671932640E+01  0.24060666380E+02  0.26069408910E+02  0.10566000000E+00 0. -1.
        996    1    1    2    0    0  0.97510843650E+01 -0.23671932640E+01  0.66258449741E+02  0.83611419150E+02  0.50000000000E+02 0.  0.
<mgrwt>
<rscale>  0 0.50996934E+02</rscale>
<asrwt>0</asrwt>
<pdfrwt beam="1">  1       13 0.10000000E+01 0.50996934E+02</pdfrwt>
<pdfrwt beam="2">  1       22 0.96808533E-01 0.50996934E+02</pdfrwt>
<totfact> 0.14736938E+00</totfact>
</mgrwt>
</event>
<event>
 4    1  0.2486873E+000  0.5686602E+02  0.7957747E-01  0.1411475E+00
         13   -1    0    0    0    0  0.00000000000E+00  0.00000000000E+00  0.99999944188E+02  0.10000000001E+03  0.10566000000E+00 0.  1.
         22   -1    0    0    0    0 -0.00000000000E+00 -0.00000000000E+00 -0.33001713449E+02  0.33001713449E+02  0.00000000000E+00 0. -1.
         13    1    1    2    0    0  0.12916001327E+02 -0.23810106860E+02 -0.16693339971E+02  0.31818595858E+02  0.10566000000E+00 0. -1.
        996    1    1    2    0    0 -0.12916001327E+02  0.23810106860E+02  0.83691570710E+02  0.10118311760E+03  0.50000000000E+02 0.  0.
<mgrwt>
<rscale>  0 0.56866020E+02</rscale>
<asrwt>0</asrwt>
<pdfrwt beam="1">  1       13 0.10000000E+01 0.56866020E+02</pdfrwt>
<pdfrwt beam="2">  1       22 0.33001732E+00 0.56866020E+02</pdfrwt>
<totfact> 0.17510411E-01</totfact>
</mgrwt>
</event>
<event>
 4    1  0.2486873E+000  0.5103879E+02  0.7957747E-01  0.1439818E+00
         13   -1    0    0    0    0  0.00000000000E+00  0.00000000000E+00  0.99999944179E+02  0.99999999999E+02  0.10566000000E+00 0. -1.
         22   -1    0    0    0    0 -0.00000000000E+00 -0.00000000000E+00 -0.11267641460E+02  0.11267641460E+02  0.00000000000E+00 0. -1.
         13    1    1    2    0    0  0.94284187355E-01 -0.10244492043E+02  0.17169248345E+01  0.10388334884E+02  0.10566000000E+00 0.  1.
        996    1    1    2    0    0 -0.94284187355E-01  0.10244492043E+02  0.87015377885E+02  0.10087930658E+03  0.50000000000E+02 0.  0.
<mgrwt>
<rscale>  0 0.51038794E+02</rscale>
<asrwt>0</asrwt>
<pdfrwt beam="1">  1       13 0.10000000E+01 0.51038794E+02</pdfrwt>
<pdfrwt beam="2">  1       22 0.11267666E+00 0.51038794E+02</pdfrwt>
<totfact> 0.11798759E+00</totfact>
</mgrwt>
</event>
<event>
 4    1  0.2486873E+000  0.5109670E+02  0.7957747E-01  0.1439514E+00
         13   -1    0    0    0    0  0.00000000000E+00  0.00000000000E+00  0.99999944180E+02  0.10000000000E+03  0.10566000000E+00 0.  1.
         22   -1    0    0    0    0 -0.00000000000E+00 -0.00000000000E+00 -0.96544434022E+01  0.96544434022E+01  0.00000000000E+00 0.  1.
         13    1    1    2    0    0 -0.93479284158E+00  0.10488013142E+02  0.10585840396E+02  0.14931290575E+02  0.10566000000E+00 0. -1.
        996    1    1    2    0    0  0.93479284158E+00 -0.10488013142E+02  0.79759660382E+02  0.94723152827E+02  0.50000000000E+02 0.  0.
<mgrwt>
<rscale>  0 0.51096695E+02</rscale>
<asrwt>0</asrwt>
<pdfrwt beam="1">  1       13 0.10000000E+01 0.51096695E+02</pdfrwt>
<pdfrwt beam="2">  1       22 0.96544686E-01 0.51096695E+02</pdfrwt>
<totfact> 0.14798422E+00</totfact>
</mgrwt>
</event>
<event>
 4    1  0.2486873E+000  0.5237118E+02  0.7957747E-01  0.1432956E+00
         13   -1    0    0    0    0  0.00000000000E+00  0.00000000000E+00  0.99999944182E+02  0.10000000000E+03  0.10566000000E+00 0.  1.
         22   -1    0    0    0    0 -0.00000000000E+00 -0.00000000000E+00 -0.24176430800E+02  0.24176430800E+02  0.00000000000E+00 0. -1.
         13    1    1    2    0    0  0.88070915836E+01 -0.12852057396E+02 -0.13510890967E+02  0.20622695756E+02  0.10566000000E+00 0. -1.
        996    1    1    2    0    0 -0.88070915836E+01  0.12852057396E+02  0.89334404349E+02  0.10355373505E+03  0.50000000000E+02 0.  0.
<mgrwt>
<rscale>  0 0.52371178E+02</rscale>
<asrwt>0</asrwt>
<pdfrwt beam="1">  1       13 0.10000000E+01 0.52371178E+02</pdfrwt>
<pdfrwt beam="2">  1       22 0.24176452E+00 0.52371178E+02</pdfrwt>
<totfact> 0.31503092E-01</totfact>
</mgrwt>
</event>
<event>
 4    1  0.2486873E+000  0.5156921E+02  0.7957747E-01  0.1437057E+00
         13   -1    0    0    0    0  0.00000000000E+00  0.00000000000E+00  0.99999944178E+02  0.99999999998E+02  0.10566000000E+00 0. -1.
         22   -1    0    0    0    0 -0.00000000000E+00 -0.00000000000E+00 -0.34280527701E+02  0.34280527701E+02  0.00000000000E+00 0.  1.
         13    1    1    2    0    0  0.40139099221E+01 -0.11969620633E+02 -0.26087237492E+02  0.28981691029E+02  0.10566000000E+00 0.  1.
        996    1    1    2    0    0 -0.40139099221E+01  0.11969620633E+02  0.91806653969E+02  0.10529883667E+03  0.50000000000E+02 0.  0.
<mgrwt>
<rscale>  0 0.51569209E+02</rscale>
<asrwt>0</asrwt>
<pdfrwt beam="1">  1       13 0.10000000E+01 0.51569209E+02</pdfrwt>
<pdfrwt beam="2">  1       22 0.34280546E+00 0.51569209E+02</pdfrwt>
<totfact> 0.16286393E-01</totfact>
</mgrwt>
</event>
<event>
 4    1  0.2486873E+000  0.5201012E+02  0.7957747E-01  0.1434792E+00
         13   -1    0    0    0    0  0.00000000000E+00  0.00000000000E+00  0.99999944182E+02  0.10000000000E+03  0.10566000000E+00 0.  1.
         22   -1    0    0    0    0 -0.00000000000E+00 -0.00000000000E+00 -0.11010460282E+02  0.11010460282E+02  0.00000000000E+00 0.  1.
         13    1    1    2    0    0  0.73036142285E+01  0.12317048735E+02  0.17776914137E+02  0.22827227397E+02  0.10566000000E+00 0. -1.
        996    1    1    2    0    0 -0.73036142285E+01 -0.12317048735E+02  0.71212569763E+02  0.88183232888E+02  0.50000000000E+02 0.  0.
<mgrwt>
<rscale>  0 0.52010119E+02</rscale>
<asrwt>0</asrwt>
<pdfrwt beam="1">  1       13 0.10000000E+01 0.52010119E+02</pdfrwt>
<pdfrwt beam="2">  1       22 0.11010485E+00 0.52010119E+02</pdfrwt>
<totfact> 0.12240206E+00</totfact>
</mgrwt>
</event>
<event>
 4    1  0.2486873E+000  0.5224651E+02  0.7957747E-01  0.1433588E+00
         13   -1    0    0    0    0  0.00000000000E+00  0.00000000000E+00  0.99999944182E+02  0.10000000000E+03  0.10566000000E+00 0.  1.
         22   -1    0    0    0    0 -0.00000000000E+00 -0.00000000000E+00 -0.30117229985E+02  0.30117229985E+02  0.00000000000E+00 0. -1.
         13    1    1    2    0    0 -0.37900728430E+01  0.14674246149E+02 -0.20635211421E+02  0.25603149545E+02  0.10566000000E+00 0. -1.
        996    1    1    2    0    0  0.37900728430E+01 -0.14674246149E+02  0.90517925619E+02  0.10451408044E+03  0.50000000000E+02 0.  0.
<mgrwt>
<rscale>  0 0.52246513E+02</rscale>
<asrwt>0</asrwt>
<pdfrwt beam="1">  1       13 0.10000000E+01 0.52246513E+02</pdfrwt>
<pdfrwt beam="2">  1       22 0.30117250E+00 0.52246513E+02</pdfrwt>
<totfact> 0.20559455E-01</totfact>
</mgrwt>
</event>
<event>
 4    1  0.2486873E+000  0.5266873E+02  0.7957747E-01  0.1431457E+00
         13   -1    0    0    0    0  0.00000000000E+00  0.00000000000E+00  0.99999944178E+02  0.99999999998E+02  0.10566000000E+00 0.  1.
         22   -1    0    0    0    0 -0.00000000000E+00 -0.00000000000E+00 -0.12173857127E+02  0.12173857127E+02  0.00000000000E+00 0.  1.
         13    1    1    2    0    0 -0.77481988996E+00  0.16534645951E+02  0.15298994130E+02  0.22540302749E+02  0.10566000000E+00 0. -1.
        996    1    1    2    0    0  0.77481988996E+00 -0.16534645951E+02  0.72527092921E+02  0.89633554377E+02  0.50000000000E+02 0.  0.
<mgrwt>
<rscale>  0 0.52668728E+02</rscale>
<asrwt>0</asrwt>
<pdfrwt beam="1">  1       13 0.10000000E+01 0.52668728E+02</pdfrwt>
<pdfrwt beam="2">  1       22 0.12173882E+00 0.52668728E+02</pdfrwt>
<totfact> 0.10530096E+00</totfact>
</mgrwt>
</event>
<event>
 4    1  0.2486873E+000  0.5154713E+02  0.7957747E-01  0.1437171E+00
         13   -1    0    0    0    0  0.00000000000E+00  0.00000000000E+00  0.99999944176E+02  0.99999999996E+02  0.10566000000E+00 0. -1.
         22   -1    0    0    0    0 -0.00000000000E+00 -0.00000000000E+00 -0.11625437867E+02  0.11625437867E+02  0.00000000000E+00 0. -1.
         13    1    1    2    0    0 -0.11041057527E+02  0.59330671815E+01  0.36084628743E+02  0.38199709856E+02  0.10566000000E+00 0.  1.
        996    1    1    2    0    0  0.11041057527E+02 -0.59330671815E+01  0.52289877566E+02  0.73425728007E+02  0.50000000000E+02 0.  0.
<mgrwt>
<rscale>  0 0.51547126E+02</rscale>
<asrwt>0</asrwt>
<pdfrwt beam="1">  1       13 0.10000000E+01 0.51547126E+02</pdfrwt>
<pdfrwt beam="2">  1       22 0.11625463E+00 0.51547126E+02</pdfrwt>
<totfact> 0.11269524E+00</totfact>
</mgrwt>
</event>
<event>
 4    1  0.2486873E+000  0.5491002E+02  0.7957747E-01  0.1420525E+00
         13   -1    0    0    0    0  0.00000000000E+00  0.00000000000E+00  0.99999944178E+02  0.99999999999E+02  0.10566000000E+00 0.  1.
         22   -1    0    0    0    0 -0.00000000000E+00 -0.00000000000E+00 -0.16999283176E+02  0.16999283176E+02  0.00000000000E+00 0.  1.
         13    1    1    2    0    0  0.24394772779E+01  0.22564556393E+02  0.44445786727E+02  0.49905404281E+02  0.10566000000E+00 0. -1.
        996    1    1    2    0    0 -0.24394772779E+01 -0.22564556393E+02  0.38554874275E+02  0.67093878893E+02  0.50000000000E+02 0.  0.
<mgrwt>
<rscale>  0 0.54910020E+02</rscale>
<asrwt>0</asrwt>
<pdfrwt beam="1">  1       13 0.10000000E+01 0.54910020E+02</pdfrwt>
<pdfrwt beam="2">  1       22 0.16999306E+00 0.54910020E+02</pdfrwt>
<totfact> 0.61136698E-01</totfact>
</mgrwt>
</event>
<event>
 4    1  0.2486873E+000  0.5512570E+02  0.7957747E-01  0.1419505E+00
         13   -1    0    0    0    0  0.00000000000E+00  0.00000000000E+00  0.99999944192E+02  0.10000000001E+03  0.10566000000E+00 0.  1.
         22   -1    0    0    0    0 -0.00000000000E+00 -0.00000000000E+00 -0.20743735879E+02  0.20743735879E+02  0.00000000000E+00 0. -1.
         13    1    1    2    0    0  0.14930369598E+02 -0.17774331348E+02 -0.11655185737E+01  0.23242469507E+02  0.10566000000E+00 0. -1.
        996    1    1    2    0    0 -0.14930369598E+02  0.17774331348E+02  0.80421726887E+02  0.97501266385E+02  0.50000000000E+02 0.  0.
<mgrwt>
<rscale>  0 0.55125700E+02</rscale>
<asrwt>0</asrwt>
<pdfrwt beam="1">  1       13 0.10000000E+01 0.55125700E+02</pdfrwt>
<pdfrwt beam="2">  1       22 0.20743758E+00 0.55125700E+02</pdfrwt>
<totfact> 0.42532872E-01</totfact>
</mgrwt>
</event>
<event>
 4    1  0.2486873E+000  0.5166634E+02  0.7957747E-01  0.1436556E+00
         13   -1    0    0    0    0  0.00000000000E+00  0.00000000000E+00  0.99999944175E+02  0.99999999995E+02  0.10566000000E+00 0. -1.
         22   -1    0    0    0    0 -0.00000000000E+00 -0.00000000000E+00 -0.15880772777E+02  0.15880772777E+02  0.00000000000E+00 0. -1.
         13    1    1    2    0    0  0.10048424441E+02  0.82728677019E+01 -0.40990451666E+01  0.13646410116E+02  0.10566000000E+00 0.  1.
        996    1    1    2    0    0 -0.10048424441E+02 -0.82728677019E+01  0.88218216565E+02  0.10223436266E+03  0.50000000000E+02 0.  0.
<mgrwt>
<rscale>  0 0.51666345E+02</rscale>
<asrwt>0</asrwt>
<pdfrwt beam="1">  1       13 0.10000000E+01 0.51666345E+02</pdfrwt>
<pdfrwt beam="2">  1       22 0.15880796E+00 0.51666345E+02</pdfrwt>
<totfact> 0.68346726E-01</totfact>
</mgrwt>
</event>
<event>
 4    1  0.2486873E+000  0.5419414E+02  0.7957747E-01  0.1423949E+00
         13   -1    0    0    0    0  0.00000000000E+00  0.00000000000E+00  0.99999944179E+02  0.99999999999E+02  0.10566000000E+00 0.  1.
         22   -1    0    0    0    0 -0.00000000000E+00 -0.00000000000E+00 -0.16173184167E+02  0.16173184167E+02  0.00000000000E+00 0.  1.
         13    1    1    2    0    0 -0.19784945889E+02  0.67498666806E+01  0.67828030534E+01  0.21977769799E+02  0.10566000000E+00 0. -1.
        996    1    1    2    0    0  0.19784945889E+02 -0.67498666806E+01  0.77043956958E+02  0.94195414367E+02  0.50000000000E+02 0.  0.
<mgrwt>
<rscale>  0 0.54194140E+02</rscale>
<asrwt>0</asrwt>
<pdfrwt beam="1">  1       13 0.10000000E+01 0.54194140E+02</pdfrwt>
<pdfrwt beam="2">  1       22 0.16173208E+00 0.54194140E+02</pdfrwt>
<totfact> 0.66572854E-01</totfact>
</mgrwt>
</event>
<event>
 4    1  0.2486873E+000  0.5158195E+02  0.7957747E-01  0.1436991E+00
         13   -1    0    0    0    0  0.00000000000E+00  0.00000000000E+00  0.99999944180E+02  0.10000000000E+03  0.10566000000E+00 0. -1.
         22   -1    0    0    0    0 -0.00000000000E+00 -0.00000000000E+00 -0.16342219062E+02  0.16342219062E+02  0.00000000000E+00 0.  1.
         13    1    1    2    0    0 -0.11746109250E+02  0.47672607894E+01 -0.51160411130E+01  0.13670512012E+02  0.10566000000E+00 0.  1.
        996    1    1    2    0    0  0.11746109250E+02 -0.47672607894E+01  0.88773766231E+02  0.10267170705E+03  0.50000000000E+02 0.  0.
<mgrwt>
<rscale>  0 0.51581953E+02</rscale>
<asrwt>0</asrwt>
<pdfrwt beam="1">  1       13 0.10000000E+01 0.51581953E+02</pdfrwt>
<pdfrwt beam="2">  1       22 0.16342242E+00 0.51581953E+02</pdfrwt>
<totfact> 0.65061350E-01</totfact>
</mgrwt>
</event>
<event>
 4    1  0.2486873E+000  0.5144012E+02  0.7957747E-01  0.1437725E+00
         13   -1    0    0    0    0  0.00000000000E+00  0.00000000000E+00  0.99999944178E+02  0.99999999998E+02  0.10566000000E+00 0. -1.
         22   -1    0    0    0    0 -0.00000000000E+00 -0.00000000000E+00 -0.12362519897E+02  0.12362519897E+02  0.00000000000E+00 0. -1.
         13    1    1    2    0    0 -0.59199730730E+01 -0.10537541554E+02  0.41631680360E+02  0.43350822793E+02  0.10566000000E+00 0.  1.
        996    1    1    2    0    0  0.59199730730E+01  0.10537541554E+02  0.46005743921E+02  0.69011697102E+02  0.50000000000E+02 0.  0.
<mgrwt>
<rscale>  0 0.51440119E+02</rscale>
<asrwt>0</asrwt>
<pdfrwt beam="1">  1       13 0.10000000E+01 0.51440119E+02</pdfrwt>
<pdfrwt beam="2">  1       22 0.12362544E+00 0.51440119E+02</pdfrwt>
<totfact> 0.10255161E+00</totfact>
</mgrwt>
</event>
<event>
 4    1  0.2486873E+000  0.5240903E+02  0.7957747E-01  0.1432765E+00
         13   -1    0    0    0    0  0.00000000000E+00  0.00000000000E+00  0.99999944170E+02  0.99999999990E+02  0.10566000000E+00 0.  1.
         22   -1    0    0    0    0 -0.00000000000E+00 -0.00000000000E+00 -0.11854937445E+02  0.11854937445E+02  0.00000000000E+00 0.  1.
         13    1    1    2    0    0  0.19771866721E+01  0.15581933356E+02  0.13891514181E+02  0.20968816002E+02  0.10566000000E+00 0. -1.
        996    1    1    2    0    0 -0.19771866721E+01 -0.15581933356E+02  0.74253492544E+02  0.90886121434E+02  0.50000000000E+02 0.  0.
<mgrwt>
<rscale>  0 0.52409025E+02</rscale>
<asrwt>0</asrwt>
<pdfrwt beam="1">  1       13 0.10000000E+01 0.52409025E+02</pdfrwt>
<pdfrwt beam="2">  1       22 0.11854962E+00 0.52409025E+02</pdfrwt>
<totfact> 0.10961141E+00</totfact>
</mgrwt>
</event>
<event>
 4    1  0.2486873E+000  0.5981532E+02  0.7957747E-01  0.1398608E+00
         13   -1    0    0    0    0  0.00000000000E+00  0.00000000000E+00  0.99999944173E+02  0.99999999993E+02  0.10566000000E+00 0. -1.
         22   -1    0    0    0    0 -0.00000000000E+00 -0.00000000000E+00 -0.25791067006E+02  0.25791067006E+02  0.00000000000E+00 0.  1.
         13    1    1    2    0    0  0.30488664115E+01 -0.32689093723E+02  0.32604762691E+01  0.32992640155E+02  0.10566000000E+00 0.  1.
        996    1    1    2    0    0 -0.30488664115E+01  0.32689093723E+02  0.70948400898E+02  0.92798426845E+02  0.50000000000E+02 0.  0.
<mgrwt>
<rscale>  0 0.59815319E+02</rscale>
<asrwt>0</asrwt>
<pdfrwt beam="1">  1       13 0.10000000E+01 0.59815319E+02</pdfrwt>
<pdfrwt beam="2">  1       22 0.25791088E+00 0.59815319E+02</pdfrwt>
<totfact> 0.28036031E-01</totfact>
</mgrwt>
</event>
<event>
 4    1  0.2486873E+000  0.5246376E+02  0.7957747E-01  0.1432488E+00
         13   -1    0    0    0    0  0.00000000000E+00  0.00000000000E+00  0.99999944179E+02  0.99999999999E+02  0.10566000000E+00 0. -1.
         22   -1    0    0    0    0 -0.00000000000E+00 -0.00000000000E+00 -0.12135091542E+02  0.12135091542E+02  0.00000000000E+00 0. -1.
         13    1    1    2    0    0  0.61521330393E+01  0.14649154606E+02  0.12066558437E+02  0.19951427722E+02  0.10566000000E+00 0.  1.
        996    1    1    2    0    0 -0.61521330393E+01 -0.14649154606E+02  0.75798294200E+02  0.92183663819E+02  0.50000000000E+02 0.  0.
<mgrwt>
<rscale>  0 0.52463763E+02</rscale>
<asrwt>0</asrwt>
<pdfrwt beam="1">  1       13 0.10000000E+01 0.52463763E+02</pdfrwt>
<pdfrwt beam="2">  1       22 0.12135116E+00 0.52463763E+02</pdfrwt>
<totfact> 0.10577144E+00</totfact>
</mgrwt>
</event>
<event>
 4    1  0.2486873E+000  0.5242546E+02  0.7957747E-01  0.1432682E+00
         13   -1    0    0    0    0  0.00000000000E+00  0.00000000000E+00  0.99999944187E+02  0.10000000001E+03  0.10566000000E+00 0. -1.
         22   -1    0    0    0    0 -0.00000000000E+00 -0.00000000000E+00 -0.36367524092E+02  0.36367524092E+02  0.00000000000E+00 0. -1.
         13    1    1    2    0    0 -0.15722684082E+02  0.11073564500E+01 -0.27231582686E+02  0.31464254205E+02  0.10566000000E+00 0.  1.
        996    1    1    2    0    0  0.15722684082E+02 -0.11073564500E+01  0.90864002781E+02  0.10490326989E+03  0.50000000000E+02 0.  0.
<mgrwt>
<rscale>  0 0.52425462E+02</rscale>
<asrwt>0</asrwt>
<pdfrwt beam="1">  1       13 0.10000000E+01 0.52425462E+02</pdfrwt>
<pdfrwt beam="2">  1       22 0.36367542E+00 0.52425462E+02</pdfrwt>
<totfact> 0.14702317E-01</totfact>
</mgrwt>
</event>
<event>
 4    1  0.2486873E+000  0.6091064E+02  0.7957747E-01  0.1394049E+00
         13   -1    0    0    0    0  0.00000000000E+00  0.00000000000E+00  0.99999944178E+02  0.99999999998E+02  0.10566000000E+00 0. -1.
         22   -1    0    0    0    0 -0.00000000000E+00 -0.00000000000E+00 -0.38847038296E+02  0.38847038296E+02  0.00000000000E+00 0.  1.
         13    1    1    2    0    0  0.27516210027E+02 -0.21282948701E+02 -0.17842318902E+02  0.39095590896E+02  0.10566000000E+00 0.  1.
        996    1    1    2    0    0 -0.27516210027E+02  0.21282948701E+02  0.78995224783E+02  0.99751447399E+02  0.50000000000E+02 0.  0.
<mgrwt>
<rscale>  0 0.60910637E+02</rscale>
<asrwt>0</asrwt>
<pdfrwt beam="1">  1       13 0.10000000E+01 0.60910637E+02</pdfrwt>
<pdfrwt beam="2">  1       22 0.38847055E+00 0.60910637E+02</pdfrwt>
<totfact> 0.13151292E-01</totfact>
</mgrwt>
</event>
<event>
 4    1  0.2486873E+000  0.5390625E+02  0.7957747E-01  0.1425343E+00
         13   -1    0    0    0    0  0.00000000000E+00  0.00000000000E+00  0.99999944180E+02  0.10000000000E+03  0.10566000000E+00 0. -1.
         22   -1    0    0    0    0 -0.00000000000E+00 -0.00000000000E+00 -0.14554403037E+02  0.14554403037E+02  0.00000000000E+00 0.  1.
         13    1    1    2    0    0 -0.17812076747E+02  0.94134652958E+01  0.12001637915E+02  0.23450669151E+02  0.10566000000E+00 0.  1.
        996    1    1    2    0    0  0.17812076747E+02 -0.94134652958E+01  0.73443903227E+02  0.91103733887E+02  0.50000000000E+02 0.  0.
<mgrwt>
<rscale>  0 0.53906246E+02</rscale>
<asrwt>0</asrwt>
<pdfrwt beam="1">  1       13 0.10000000E+01 0.53906246E+02</pdfrwt>
<pdfrwt beam="2">  1       22 0.14554427E+00 0.53906246E+02</pdfrwt>
<totfact> 0.79452669E-01</totfact>
</mgrwt>
</event>
<event>
 4    1  0.2486873E+000  0.5184350E+02  0.7957747E-01  0.1435644E+00
         13   -1    0    0    0    0  0.00000000000E+00  0.00000000000E+00  0.99999944181E+02  0.10000000000E+03  0.10566000000E+00 0. -1.
         22   -1    0    0    0    0 -0.00000000000E+00 -0.00000000000E+00 -0.14089361429E+02  0.14089361429E+02  0.00000000000E+00 0.  1.
         13    1    1    2    0    0 -0.81290506190E+01  0.11030260872E+02 -0.53057904554E-01  0.13702631063E+02  0.10566000000E+00 0.  1.
        996    1    1    2    0    0  0.81290506190E+01 -0.11030260872E+02  0.85963640657E+02  0.10038673037E+03  0.50000000000E+02 0.  0.
<mgrwt>
<rscale>  0 0.51843496E+02</rscale>
<asrwt>0</asrwt>
<pdfrwt beam="1">  1       13 0.10000000E+01 0.51843496E+02</pdfrwt>
<pdfrwt beam="2">  1       22 0.14089385E+00 0.51843496E+02</pdfrwt>
<totfact> 0.83433995E-01</totfact>
</mgrwt>
</event>
<event>
 4    1  0.2486873E+000  0.5134957E+02  0.7957747E-01  0.1438195E+00
         13   -1    0    0    0    0  0.00000000000E+00  0.00000000000E+00  0.99999944179E+02  0.99999999999E+02  0.10566000000E+00 0.  1.
         22   -1    0    0    0    0 -0.00000000000E+00 -0.00000000000E+00 -0.47875034916E+02  0.47875034916E+02  0.00000000000E+00 0. -1.
         13    1    1    2    0    0 -0.50425963342E+01  0.10552261255E+02 -0.40398512581E+02  0.42057448546E+02  0.10566000000E+00 0. -1.
        996    1    1    2    0    0  0.50425963342E+01 -0.10552261255E+02  0.92523421844E+02  0.10581758637E+03  0.50000000000E+02 0.  0.
<mgrwt>
<rscale>  0 0.51349567E+02</rscale>
<asrwt>0</asrwt>
<pdfrwt beam="1">  1       13 0.10000000E+01 0.51349567E+02</pdfrwt>
<pdfrwt beam="2">  1       22 0.47875049E+00 0.51349567E+02</pdfrwt>
<totfact> 0.82795337E-02</totfact>
</mgrwt>
</event>
<event>
 4    1  0.2486873E+000  0.5123621E+02  0.7957747E-01  0.1438786E+00
         13   -1    0    0    0    0  0.00000000000E+00  0.00000000000E+00  0.99999944176E+02  0.99999999996E+02  0.10566000000E+00 0.  1.
         22   -1    0    0    0    0 -0.00000000000E+00 -0.00000000000E+00 -0.12244016732E+02  0.12244016732E+02  0.00000000000E+00 0.  1.
         13    1    1    2    0    0  0.29931458565E+01 -0.10779144638E+02  0.67455389836E+00  0.11207812821E+02  0.10566000000E+00 0. -1.
        996    1    1    2    0    0 -0.29931458565E+01  0.10779144638E+02  0.87081373546E+02  0.10103620391E+03  0.50000000000E+02 0.  0.
<mgrwt>
<rscale>  0 0.51236207E+02</rscale>
<asrwt>0</asrwt>
<pdfrwt beam="1">  1       13 0.10000000E+01 0.51236207E+02</pdfrwt>
<pdfrwt beam="2">  1       22 0.12244041E+00 0.51236207E+02</pdfrwt>
<totfact> 0.10404096E+00</totfact>
</mgrwt>
</event>
<event>
 4    1  0.2486873E+000  0.5113181E+02  0.7957747E-01  0.1439331E+00
         13   -1    0    0    0    0  0.00000000000E+00  0.00000000000E+00  0.99999944185E+02  0.10000000001E+03  0.10566000000E+00 0.  1.
         22   -1    0    0    0    0 -0.00000000000E+00 -0.00000000000E+00 -0.40231518772E+02  0.40231518772E+02  0.00000000000E+00 0. -1.
         13    1    1    2    0    0  0.65354479665E+01  0.84705109463E+01 -0.32788571272E+02  0.34490045026E+02  0.10566000000E+00 0. -1.
        996    1    1    2    0    0 -0.65354479665E+01 -0.84705109463E+01  0.92556996685E+02  0.10574147375E+03  0.50000000000E+02 0.  0.
<mgrwt>
<rscale>  0 0.51131806E+02</rscale>
<asrwt>0</asrwt>
<pdfrwt beam="1">  1       13 0.10000000E+01 0.51131806E+02</pdfrwt>
<pdfrwt beam="2">  1       22 0.40231535E+00 0.51131806E+02</pdfrwt>
<totfact> 0.12224077E-01</totfact>
</mgrwt>
</event>
<event>
 4    1  0.2486873E+000  0.5140890E+02  0.7957747E-01  0.1437887E+00
         13   -1    0    0    0    0  0.00000000000E+00  0.00000000000E+00  0.99999944182E+02  0.10000000000E+03  0.10566000000E+00 0. -1.
         22   -1    0    0    0    0 -0.00000000000E+00 -0.00000000000E+00 -0.58416604145E+02  0.58416604145E+02  0.00000000000E+00 0.  1.
         13    1    1    2    0    0  0.10713775218E+02 -0.53000194232E+01 -0.51073437922E+02  0.52453621520E+02  0.10566000000E+00 0.  1.
        996    1    1    2    0    0 -0.10713775218E+02  0.53000194232E+01  0.92656777959E+02  0.10596298263E+03  0.50000000000E+02 0.  0.
<mgrwt>
<rscale>  0 0.51408902E+02</rscale>
<asrwt>0</asrwt>
<pdfrwt beam="1">  1       13 0.10000000E+01 0.51408902E+02</pdfrwt>
<pdfrwt beam="2">  1       22 0.58416616E+00 0.51408902E+02</pdfrwt>
<totfact> 0.59027220E-02</totfact>
</mgrwt>
</event>
<event>
 4    1  0.2486873E+000  0.5169273E+02  0.7957747E-01  0.1436420E+00
         13   -1    0    0    0    0  0.00000000000E+00  0.00000000000E+00  0.99999944170E+02  0.99999999990E+02  0.10566000000E+00 0.  1.
         22   -1    0    0    0    0 -0.00000000000E+00 -0.00000000000E+00 -0.10726151279E+02  0.10726151279E+02  0.00000000000E+00 0.  1.
         13    1    1    2    0    0  0.12965550510E+02 -0.20080729649E+01  0.12157481922E+02  0.17887240922E+02  0.10566000000E+00 0. -1.
        996    1    1    2    0    0 -0.12965550510E+02  0.20080729649E+01  0.77116310969E+02  0.92838910347E+02  0.50000000000E+02 0.  0.
<mgrwt>
<rscale>  0 0.51692725E+02</rscale>
<asrwt>0</asrwt>
<pdfrwt beam="1">  1       13 0.10000000E+01 0.51692725E+02</pdfrwt>
<pdfrwt beam="2">  1       22 0.10726176E+00 0.51692725E+02</pdfrwt>
<totfact> 0.12714862E+00</totfact>
</mgrwt>
</event>
<event>
 4    1  0.2486873E+000  0.6000953E+02  0.7957747E-01  0.1397792E+00
         13   -1    0    0    0    0  0.00000000000E+00  0.00000000000E+00  0.99999944175E+02  0.99999999995E+02  0.10566000000E+00 0.  1.
         22   -1    0    0    0    0 -0.00000000000E+00 -0.00000000000E+00 -0.34899542895E+02  0.34899542895E+02  0.00000000000E+00 0. -1.
         13    1    1    2    0    0  0.33132264758E+01 -0.33017656524E+02 -0.13657809476E+02  0.35884398222E+02  0.10566000000E+00 0. -1.
        996    1    1    2    0    0 -0.33132264758E+01  0.33017656524E+02  0.78758210756E+02  0.99015144668E+02  0.50000000000E+02 0.  0.
<mgrwt>
<rscale>  0 0.60009525E+02</rscale>
<asrwt>0</asrwt>
<pdfrwt beam="1">  1       13 0.10000000E+01 0.60009525E+02</pdfrwt>
<pdfrwt beam="2">  1       22 0.34899561E+00 0.60009525E+02</pdfrwt>
<totfact> 0.15916099E-01</totfact>
</mgrwt>
</event>
<event>
 4    1  0.2486873E+000  0.5100694E+02  0.7957747E-01  0.1439985E+00
         13   -1    0    0    0    0  0.00000000000E+00  0.00000000000E+00  0.99999944182E+02  0.10000000000E+03  0.10566000000E+00 0.  1.
         22   -1    0    0    0    0 -0.00000000000E+00 -0.00000000000E+00 -0.13868697683E+02  0.13868697683E+02  0.00000000000E+00 0.  1.
         13    1    1    2    0    0 -0.37307087858E+01 -0.93696312368E+01  0.50869902364E+02  0.51860064675E+02  0.10566000000E+00 0. -1.
        996    1    1    2    0    0  0.37307087858E+01  0.93696312368E+01  0.35261344135E+02  0.62008633010E+02  0.50000000000E+02 0.  0.
<mgrwt>
<rscale>  0 0.51006942E+02</rscale>
<asrwt>0</asrwt>
<pdfrwt beam="1">  1       13 0.10000000E+01 0.51006942E+02</pdfrwt>
<pdfrwt beam="2">  1       22 0.13868722E+00 0.51006942E+02</pdfrwt>
<totfact> 0.85441818E-01</totfact>
</mgrwt>
</event>
<event>
 4    1  0.2486873E+000  0.5126531E+02  0.7957747E-01  0.1438634E+00
         13   -1    0    0    0    0  0.00000000000E+00  0.00000000000E+00  0.99999944188E+02  0.10000000001E+03  0.10566000000E+00 0.  1.
         22   -1    0    0    0    0 -0.00000000000E+00 -0.00000000000E+00 -0.17284244366E+02  0.17284244366E+02  0.00000000000E+00 0. -1.
         13    1    1    2    0    0  0.10635336758E+02 -0.38758167160E+01 -0.74584046514E+01  0.13556227615E+02  0.10566000000E+00 0. -1.
        996    1    1    2    0    0 -0.10635336758E+02  0.38758167160E+01  0.90174104473E+02  0.10372801676E+03  0.50000000000E+02 0.  0.
<mgrwt>
<rscale>  0 0.51265313E+02</rscale>
<asrwt>0</asrwt>
<pdfrwt beam="1">  1       13 0.10000000E+01 0.51265313E+02</pdfrwt>
<pdfrwt beam="2">  1       22 0.17284267E+00 0.51265313E+02</pdfrwt>
<totfact> 0.58967617E-01</totfact>
</mgrwt>
</event>
<event>
 4    1  0.2486873E+000  0.5101780E+02  0.7957747E-01  0.1439928E+00
         13   -1    0    0    0    0  0.00000000000E+00  0.00000000000E+00  0.99999944174E+02  0.99999999994E+02  0.10566000000E+00 0.  1.
         22   -1    0    0    0    0 -0.00000000000E+00 -0.00000000000E+00 -0.16453093655E+02  0.16453093655E+02  0.00000000000E+00 0. -1.
         13    1    1    2    0    0  0.49369834863E+01  0.88567708812E+01 -0.71391075517E+01  0.12401379643E+02  0.10566000000E+00 0. -1.
        996    1    1    2    0    0 -0.49369834863E+01 -0.88567708812E+01  0.90685958071E+02  0.10405171401E+03  0.50000000000E+02 0.  0.
<mgrwt>
<rscale>  0 0.51017803E+02</rscale>
<asrwt>0</asrwt>
<pdfrwt beam="1">  1       13 0.10000000E+01 0.51017803E+02</pdfrwt>
<pdfrwt beam="2">  1       22 0.16453117E+00 0.51017803E+02</pdfrwt>
<totfact> 0.64234033E-01</totfact>
</mgrwt>
</event>
<event>
 4    1  0.2486873E+000  0.5317370E+02  0.7957747E-01  0.1428938E+00
         13   -1    0    0    0    0  0.00000000000E+00  0.00000000000E+00  0.99999944184E+02  0.10000000000E+03  0.10566000000E+00 0. -1.
         22   -1    0    0    0    0 -0.00000000000E+00 -0.00000000000E+00 -0.26521911341E+02  0.26521911341E+02  0.00000000000E+00 0.  1.
         13    1    1    2    0    0 -0.10037780807E+02 -0.15056072153E+02 -0.14859794533E+02  0.23415102174E+02  0.10566000000E+00 0.  1.
        996    1    1    2    0    0  0.10037780807E+02  0.15056072153E+02  0.88337827376E+02  0.10310680917E+03  0.50000000000E+02 0.  0.
<mgrwt>
<rscale>  0 0.53173700E+02</rscale>
<asrwt>0</asrwt>
<pdfrwt beam="1">  1       13 0.10000000E+01 0.53173700E+02</pdfrwt>
<pdfrwt beam="2">  1       22 0.26521932E+00 0.53173700E+02</pdfrwt>
<totfact> 0.26290460E-01</totfact>
</mgrwt>
</event>
<event>
 4    1  0.2486873E+000  0.5370121E+02  0.7957747E-01  0.1426343E+00
         13   -1    0    0    0    0  0.00000000000E+00  0.00000000000E+00  0.99999944180E+02  0.10000000000E+03  0.10566000000E+00 0.  1.
         22   -1    0    0    0    0 -0.00000000000E+00 -0.00000000000E+00 -0.13485150545E+02  0.13485150545E+02  0.00000000000E+00 0.  1.
         13    1    1    2    0    0  0.18457456163E+02  0.65682528810E+01  0.19982592669E+02  0.27984545873E+02  0.10566000000E+00 0. -1.
        996    1    1    2    0    0 -0.18457456163E+02 -0.65682528810E+01  0.66532200965E+02  0.85500604672E+02  0.50000000000E+02 0.  0.
<mgrwt>
<rscale>  0 0.53701207E+02</rscale>
<asrwt>0</asrwt>
<pdfrwt beam="1">  1       13 0.10000000E+01 0.53701207E+02</pdfrwt>
<pdfrwt beam="2">  1       22 0.13485175E+00 0.53701207E+02</pdfrwt>
<totfact> 0.89887170E-01</totfact>
</mgrwt>
</event>
<event>
 4    1  0.2486873E+000  0.5181564E+02  0.7957747E-01  0.1435787E+00
         13   -1    0    0    0    0  0.00000000000E+00  0.00000000000E+00  0.99999944176E+02  0.99999999997E+02  0.10566000000E+00 0. -1.
         22   -1    0    0    0    0 -0.00000000000E+00 -0.00000000000E+00 -0.20287587940E+02  0.20287587940E+02  0.00000000000E+00 0.  1.
         13    1    1    2    0    0 -0.53919012794E+01  0.12481516500E+02 -0.98684044134E+01  0.16800518541E+02  0.10566000000E+00 0.  1.
        996    1    1    2    0    0  0.53919012794E+01 -0.12481516500E+02  0.89580760650E+02  0.10348706940E+03  0.50000000000E+02 0.  0.
<mgrwt>
<rscale>  0 0.51815643E+02</rscale>
<asrwt>0</asrwt>
<pdfrwt beam="1">  1       13 0.10000000E+01 0.51815643E+02</pdfrwt>
<pdfrwt beam="2">  1       22 0.20287610E+00 0.51815643E+02</pdfrwt>
<totfact> 0.44099667E-01</totfact>
</mgrwt>
</event>
<event>
 4    1  0.2486873E+000  0.5162562E+02  0.7957747E-01  0.1436766E+00
         13   -1    0    0    0    0  0.00000000000E+00  0.00000000000E+00  0.99999944183E+02  0.10000000000E+03  0.10566000000E+00 0. -1.
         22   -1    0    0    0    0 -0.00000000000E+00 -0.00000000000E+00 -0.11455346320E+02  0.11455346320E+02  0.00000000000E+00 0.  1.
         13    1    1    2    0    0  0.89099653043E+01  0.92637574678E+01  0.62125019084E+01  0.14276239986E+02  0.10566000000E+00 0.  1.
        996    1    1    2    0    0 -0.89099653043E+01 -0.92637574678E+01  0.82332095954E+02  0.97179106337E+02  0.50000000000E+02 0.  0.
<mgrwt>
<rscale>  0 0.51625620E+02</rscale>
<asrwt>0</asrwt>
<pdfrwt beam="1">  1       13 0.10000000E+01 0.51625620E+02</pdfrwt>
<pdfrwt beam="2">  1       22 0.11455371E+00 0.51625620E+02</pdfrwt>
<totfact> 0.11525184E+00</totfact>
</mgrwt>
</event>
<event>
 4    1  0.2486873E+000  0.5150862E+02  0.7957747E-01  0.1437370E+00
         13   -1    0    0    0    0  0.00000000000E+00  0.00000000000E+00  0.99999944179E+02  0.99999999999E+02  0.10566000000E+00 0.  1.
         22   -1    0    0    0    0 -0.00000000000E+00 -0.00000000000E+00 -0.18721679884E+02  0.18721679884E+02  0.00000000000E+00 0.  1.
         13    1    1    2    0    0 -0.10472293346E+02  0.65931179401E+01 -0.86415719545E+01  0.15093908108E+02  0.10566000000E+00 0. -1.
        996    1    1    2    0    0  0.10472293346E+02 -0.65931179401E+01  0.89919836249E+02  0.10362777178E+03  0.50000000000E+02 0.  0.
<mgrwt>
<rscale>  0 0.51508622E+02</rscale>
<asrwt>0</asrwt>
<pdfrwt beam="1">  1       13 0.10000000E+01 0.51508622E+02</pdfrwt>
<pdfrwt beam="2">  1       22 0.18721703E+00 0.51508622E+02</pdfrwt>
<totfact> 0.51126795E-01</totfact>
</mgrwt>
</event>
<event>
 4    1  0.2486873E+000  0.5152001E+02  0.7957747E-01  0.1437311E+00
         13   -1    0    0    0    0  0.00000000000E+00  0.00000000000E+00  0.99999944176E+02  0.99999999997E+02  0.10566000000E+00 0. -1.
         22   -1    0    0    0    0 -0.00000000000E+00 -0.00000000000E+00 -0.13525777723E+02  0.13525777723E+02  0.00000000000E+00 0.  1.
         13    1    1    2    0    0 -0.48358515734E+01  0.11442299960E+02 -0.50541565509E+00  0.12432952097E+02  0.10566000000E+00 0.  1.
        996    1    1    2    0    0  0.48358515734E+01 -0.11442299960E+02  0.86979582108E+02  0.10109282562E+03  0.50000000000E+02 0.  0.
<mgrwt>
<rscale>  0 0.51520013E+02</rscale>
<asrwt>0</asrwt>
<pdfrwt beam="1">  1       13 0.10000000E+01 0.51520013E+02</pdfrwt>
<pdfrwt beam="2">  1       22 0.13525802E+00 0.51520013E+02</pdfrwt>
<totfact> 0.89045960E-01</totfact>
</mgrwt>
</event>
<event>
 4    1  0.2486873E+000  0.5453012E+02  0.7957747E-01  0.1422334E+00
         13   -1    0    0    0    0  0.00000000000E+00  0.00000000000E+00  0.99999944179E+02  0.99999999999E+02  0.10566000000E+00 0.  1.
         22   -1    0    0    0    0 -0.00000000000E+00 -0.00000000000E+00 -0.21455743053E+02  0.21455743053E+02  0.00000000000E+00 0. -1.
         13    1    1    2    0    0  0.24907514070E+01  0.21617815375E+02 -0.43909245216E+01  0.22199665907E+02  0.10566000000E+00 0. -1.
        996    1    1    2    0    0 -0.24907514070E+01 -0.21617815375E+02  0.82935125648E+02  0.99256077146E+02  0.50000000000E+02 0.  0.
<mgrwt>
<rscale>  0 0.54530118E+02</rscale>
<asrwt>0</asrwt>
<pdfrwt beam="1">  1       13 0.10000000E+01 0.54530118E+02</pdfrwt>
<pdfrwt beam="2">  1       22 0.21455765E+00 0.54530118E+02</pdfrwt>
<totfact> 0.39850026E-01</totfact>
</mgrwt>
</event>
<event>
 4    1  0.2486873E+000  0.5525053E+02  0.7957747E-01  0.1418918E+00
         13   -1    0    0    0    0  0.00000000000E+00  0.00000000000E+00  0.99999944184E+02  0.10000000000E+03  0.10566000000E+00 0. -1.
         22   -1    0    0    0    0 -0.00000000000E+00 -0.00000000000E+00 -0.29719978985E+02  0.29719978985E+02  0.00000000000E+00 0.  1.
         13    1    1    2    0    0 -0.23467498460E+02 -0.13773891489E+01 -0.15159833455E+02  0.27972350620E+02  0.10566000000E+00 0.  1.
        996    1    1    2    0    0  0.23467498460E+02  0.13773891489E+01  0.85439798654E+02  0.10174762837E+03  0.50000000000E+02 0.  0.
<mgrwt>
<rscale>  0 0.55250527E+02</rscale>
<asrwt>0</asrwt>
<pdfrwt beam="1">  1       13 0.10000000E+01 0.55250527E+02</pdfrwt>
<pdfrwt beam="2">  1       22 0.29719999E+00 0.55250527E+02</pdfrwt>
<totfact> 0.21159081E-01</totfact>
</mgrwt>
</event>
<event>
 4    1  0.2486873E+000  0.5551468E+02  0.7957747E-01  0.1417680E+00
         13   -1    0    0    0    0  0.00000000000E+00  0.00000000000E+00  0.99999944185E+02  0.10000000001E+03  0.10566000000E+00 0.  1.
         22   -1    0    0    0    0 -0.00000000000E+00 -0.00000000000E+00 -0.26997226291E+02  0.26997226291E+02  0.00000000000E+00 0. -1.
         13    1    1    2    0    0  0.83840753520E+01  0.22618292784E+02 -0.10836185802E+02  0.26444545274E+02  0.10566000000E+00 0. -1.
        996    1    1    2    0    0 -0.83840753520E+01 -0.22618292784E+02  0.83838903696E+02  0.10055268102E+03  0.50000000000E+02 0.  0.
<mgrwt>
<rscale>  0 0.55514682E+02</rscale>
<asrwt>0</asrwt>
<pdfrwt beam="1">  1       13 0.10000000E+01 0.55514682E+02</pdfrwt>
<pdfrwt beam="2">  1       22 0.26997247E+00 0.55514682E+02</pdfrwt>
<totfact> 0.25474702E-01</totfact>
</mgrwt>
</event>
<event>
 4    1  0.2486873E+000  0.5472841E+02  0.7957747E-01  0.1421388E+00
         13   -1    0    0    0    0  0.00000000000E+00  0.00000000000E+00  0.99999944180E+02  0.10000000000E+03  0.10566000000E+00 0.  1.
         22   -1    0    0    0    0 -0.00000000000E+00 -0.00000000000E+00 -0.21926107275E+02  0.21926107275E+02  0.00000000000E+00 0. -1.
         13    1    1    2    0    0 -0.20974645447E+02  0.74339339946E+01 -0.46531566651E+01  0.22734602641E+02  0.10566000000E+00 0. -1.
        996    1    1    2    0    0  0.20974645447E+02 -0.74339339946E+01  0.82726993570E+02  0.99191504634E+02  0.50000000000E+02 0.  0.
<mgrwt>
<rscale>  0 0.54728412E+02</rscale>
<asrwt>0</asrwt>
<pdfrwt beam="1">  1       13 0.10000000E+01 0.54728412E+02</pdfrwt>
<pdfrwt beam="2">  1       22 0.21926129E+00 0.54728412E+02</pdfrwt>
<totfact> 0.38239450E-01</totfact>
</mgrwt>
</event>
<event>
 4    1  0.2486873E+000  0.5260249E+02  0.7957747E-01  0.1431789E+00
         13   -1    0    0    0    0  0.00000000000E+00  0.00000000000E+00  0.99999944179E+02  0.10000000000E+03  0.10566000000E+00 0. -1.
         22   -1    0    0    0    0 -0.00000000000E+00 -0.00000000000E+00 -0.16271417102E+02  0.16271417102E+02  0.00000000000E+00 0.  1.
         13    1    1    2    0    0  0.56213723122E+01  0.15343469245E+02 -0.11858471550E+01  0.16384116475E+02  0.10566000000E+00 0.  1.
        996    1    1    2    0    0 -0.56213723122E+01 -0.15343469245E+02  0.84914374232E+02  0.99887300627E+02  0.50000000000E+02 0.  0.
<mgrwt>
<rscale>  0 0.52602489E+02</rscale>
<asrwt>0</asrwt>
<pdfrwt beam="1">  1       13 0.10000000E+01 0.52602489E+02</pdfrwt>
<pdfrwt beam="2">  1       22 0.16271440E+00 0.52602489E+02</pdfrwt>
<totfact> 0.65681759E-01</totfact>
</mgrwt>
</event>
<event>
 4    1  0.2486873E+000  0.6847349E+02  0.7957747E-01  0.1365362E+00
         13   -1    0    0    0    0  0.00000000000E+00  0.00000000000E+00  0.99999944180E+02  0.10000000000E+03  0.10566000000E+00 0. -1.
         22   -1    0    0    0    0 -0.00000000000E+00 -0.00000000000E+00 -0.34313266878E+02  0.34313266878E+02  0.00000000000E+00 0.  1.
         13    1    1    2    0    0 -0.46669093296E+02  0.32579833798E+01  0.15027365571E+02  0.49137069559E+02  0.10566000000E+00 0.  1.
        996    1    1    2    0    0  0.46669093296E+02 -0.32579833798E+01  0.50659311731E+02  0.85176197319E+02  0.50000000000E+02 0.  0.
<mgrwt>
<rscale>  0 0.68473489E+02</rscale>
<asrwt>0</asrwt>
<pdfrwt beam="1">  1       13 0.10000000E+01 0.68473489E+02</pdfrwt>
<pdfrwt beam="2">  1       22 0.34313285E+00 0.68473489E+02</pdfrwt>
<totfact> 0.16517592E-01</totfact>
</mgrwt>
</event>
<event>
 4    1  0.2486873E+000  0.5133033E+02  0.7957747E-01  0.1438295E+00
         13   -1    0    0    0    0  0.00000000000E+00  0.00000000000E+00  0.99999944180E+02  0.10000000000E+03  0.10566000000E+00 0.  1.
         22   -1    0    0    0    0 -0.00000000000E+00 -0.00000000000E+00 -0.99541538702E+01  0.99541538702E+01  0.00000000000E+00 0.  1.
         13    1    1    2    0    0 -0.73321063239E+01  0.90023629955E+01  0.13721180829E+02  0.17974545614E+02  0.10566000000E+00 0. -1.
        996    1    1    2    0    0  0.73321063239E+01 -0.90023629955E+01  0.76324609481E+02  0.91979608256E+02  0.50000000000E+02 0.  0.
<mgrwt>
<rscale>  0 0.51330326E+02</rscale>
<asrwt>0</asrwt>
<pdfrwt beam="1">  1       13 0.10000000E+01 0.51330326E+02</pdfrwt>
<pdfrwt beam="2">  1       22 0.99541790E-01 0.51330326E+02</pdfrwt>
<totfact> 0.14168985E+00</totfact>
</mgrwt>
</event>
<event>
 4    1  0.2486873E+000  0.5171304E+02  0.7957747E-01  0.1436315E+00
         13   -1    0    0    0    0  0.00000000000E+00  0.00000000000E+00  0.99999944172E+02  0.99999999992E+02  0.10566000000E+00 0.  1.
         22   -1    0    0    0    0 -0.00000000000E+00 -0.00000000000E+00 -0.17693421365E+02  0.17693421365E+02  0.00000000000E+00 0.  1.
         13    1    1    2    0    0 -0.26541116499E+01 -0.12930340387E+02 -0.66629685922E+01  0.14786626582E+02  0.10566000000E+00 0. -1.
        996    1    1    2    0    0  0.26541116499E+01  0.12930340387E+02  0.88969491399E+02  0.10290679478E+03  0.50000000000E+02 0.  0.
<mgrwt>
<rscale>  0 0.51713035E+02</rscale>
<asrwt>0</asrwt>
<pdfrwt beam="1">  1       13 0.10000000E+01 0.51713035E+02</pdfrwt>
<pdfrwt beam="2">  1       22 0.17693444E+00 0.51713035E+02</pdfrwt>
<totfact> 0.56621882E-01</totfact>
</mgrwt>
</event>
<event>
 4    1  0.2486873E+000  0.5127584E+02  0.7957747E-01  0.1438579E+00
         13   -1    0    0    0    0  0.00000000000E+00  0.00000000000E+00  0.99999944174E+02  0.99999999994E+02  0.10566000000E+00 0. -1.
         22   -1    0    0    0    0 -0.00000000000E+00 -0.00000000000E+00 -0.10451088491E+02  0.10451088491E+02  0.00000000000E+00 0. -1.
         13    1    1    2    0    0  0.29066794729E+01 -0.10989235367E+02  0.28755757860E+02  0.30921139268E+02  0.10566000000E+00 0.  1.
        996    1    1    2    0    0 -0.29066794729E+01  0.10989235367E+02  0.60793097823E+02  0.79529949217E+02  0.50000000000E+02 0.  0.
<mgrwt>
<rscale>  0 0.51275843E+02</rscale>
<asrwt>0</asrwt>
<pdfrwt beam="1">  1       13 0.10000000E+01 0.51275843E+02</pdfrwt>
<pdfrwt beam="2">  1       22 0.10451113E+00 0.51275843E+02</pdfrwt>
<totfact> 0.13197159E+00</totfact>
</mgrwt>
</event>
<event>
 4    1  0.2486873E+000  0.5369658E+02  0.7957747E-01  0.1426365E+00
         13   -1    0    0    0    0  0.00000000000E+00  0.00000000000E+00  0.99999944173E+02  0.99999999994E+02  0.10566000000E+00 0.  1.
         22   -1    0    0    0    0 -0.00000000000E+00 -0.00000000000E+00 -0.17219588773E+02  0.17219588773E+02  0.00000000000E+00 0. -1.
         13    1    1    2    0    0  0.19778547448E+01  0.19478480903E+02  0.12806126907E+01  0.19620760958E+02  0.10566000000E+00 0. -1.
        996    1    1    2    0    0 -0.19778547448E+01 -0.19478480903E+02  0.81499742710E+02  0.97598827808E+02  0.50000000000E+02 0.  0.
<mgrwt>
<rscale>  0 0.53696584E+02</rscale>
<asrwt>0</asrwt>
<pdfrwt beam="1">  1       13 0.10000000E+01 0.53696584E+02</pdfrwt>
<pdfrwt beam="2">  1       22 0.17219612E+00 0.53696584E+02</pdfrwt>
<totfact> 0.59634292E-01</totfact>
</mgrwt>
</event>
<event>
 4    1  0.2486873E+000  0.5233309E+02  0.7957747E-01  0.1433149E+00
         13   -1    0    0    0    0  0.00000000000E+00  0.00000000000E+00  0.99999944178E+02  0.99999999998E+02  0.10566000000E+00 0.  1.
         22   -1    0    0    0    0 -0.00000000000E+00 -0.00000000000E+00 -0.12109596964E+02  0.12109596964E+02  0.00000000000E+00 0. -1.
         13    1    1    2    0    0  0.15083568201E+01  0.15377813230E+02  0.10485624941E+02  0.18673825920E+02  0.10566000000E+00 0. -1.
        996    1    1    2    0    0 -0.15083568201E+01 -0.15377813230E+02  0.77404722273E+02  0.93435771042E+02  0.50000000000E+02 0.  0.
<mgrwt>
<rscale>  0 0.52333090E+02</rscale>
<asrwt>0</asrwt>
<pdfrwt beam="1">  1       13 0.10000000E+01 0.52333090E+02</pdfrwt>
<pdfrwt beam="2">  1       22 0.12109621E+00 0.52333090E+02</pdfrwt>
<totfact> 0.10608340E+00</totfact>
</mgrwt>
</event>
<event>
 4    1  0.2486873E+000  0.5468254E+02  0.7957747E-01  0.1421606E+00
         13   -1    0    0    0    0  0.00000000000E+00  0.00000000000E+00  0.99999944183E+02  0.10000000000E+03  0.10566000000E+00 0.  1.
         22   -1    0    0    0    0 -0.00000000000E+00 -0.00000000000E+00 -0.32599765171E+02  0.32599765171E+02  0.00000000000E+00 0.  1.
         13    1    1    2    0    0 -0.21924301073E+02 -0.30829749351E+01 -0.19780171460E+02  0.29689157263E+02  0.10566000000E+00 0. -1.
        996    1    1    2    0    0  0.21924301073E+02  0.30829749351E+01  0.87180350473E+02  0.10291060791E+03  0.50000000000E+02 0.  0.
<mgrwt>
<rscale>  0 0.54682536E+02</rscale>
<asrwt>0</asrwt>
<pdfrwt beam="1">  1       13 0.10000000E+01 0.54682536E+02</pdfrwt>
<pdfrwt beam="2">  1       22 0.32599784E+00 0.54682536E+02</pdfrwt>
<totfact> 0.17853582E-01</totfact>
</mgrwt>
</event>
<event>
 4    1  0.2486873E+000  0.5439784E+02  0.7957747E-01  0.1422968E+00
         13   -1    0    0    0    0  0.00000000000E+00  0.00000000000E+00  0.99999944183E+02  0.10000000000E+03  0.10566000000E+00 0.  1.
         22   -1    0    0    0    0 -0.00000000000E+00 -0.00000000000E+00 -0.17165093543E+02  0.17165093543E+02  0.00000000000E+00 0.  1.
         13    1    1    2    0    0  0.80703550907E+01  0.19849295120E+02  0.48010555640E+02  0.52575182025E+02  0.10566000000E+00 0. -1.
        996    1    1    2    0    0 -0.80703550907E+01 -0.19849295120E+02  0.34824294999E+02  0.64589911521E+02  0.50000000000E+02 0.  0.
<mgrwt>
<rscale>  0 0.54397841E+02</rscale>
<asrwt>0</asrwt>
<pdfrwt beam="1">  1       13 0.10000000E+01 0.54397841E+02</pdfrwt>
<pdfrwt beam="2">  1       22 0.17165117E+00 0.54397841E+02</pdfrwt>
<totfact> 0.60046060E-01</totfact>
</mgrwt>
</event>
<event>
 4    1  0.2486873E+000  0.5561835E+02  0.7957747E-01  0.1417197E+00
         13   -1    0    0    0    0  0.00000000000E+00  0.00000000000E+00  0.99999944180E+02  0.10000000000E+03  0.10566000000E+00 0. -1.
         22   -1    0    0    0    0 -0.00000000000E+00 -0.00000000000E+00 -0.23097452899E+02  0.23097452899E+02  0.00000000000E+00 0. -1.
         13    1    1    2    0    0 -0.21635157182E+02 -0.11194669890E+02 -0.42368425058E+01  0.24725748900E+02  0.10566000000E+00 0.  1.
        996    1    1    2    0    0  0.21635157182E+02  0.11194669890E+02  0.81139333787E+02  0.98371703999E+02  0.50000000000E+02 0.  0.
<mgrwt>
<rscale>  0 0.55618348E+02</rscale>
<asrwt>0</asrwt>
<pdfrwt beam="1">  1       13 0.10000000E+01 0.55618348E+02</pdfrwt>
<pdfrwt beam="2">  1       22 0.23097474E+00 0.55618348E+02</pdfrwt>
<totfact> 0.34621513E-01</totfact>
</mgrwt>
</event>
<event>
 4    1  0.2486873E+000  0.5125289E+02  0.7957747E-01  0.1438699E+00
         13   -1    0    0    0    0  0.00000000000E+00  0.00000000000E+00  0.99999944172E+02  0.99999999992E+02  0.10566000000E+00 0.  1.
         22   -1    0    0    0    0 -0.00000000000E+00 -0.00000000000E+00 -0.11559186142E+02  0.11559186142E+02  0.00000000000E+00 0. -1.
         13    1    1    2    0    0  0.14395985517E+01 -0.11170770502E+02  0.25655434227E+01  0.11552131175E+02  0.10566000000E+00 0. -1.
        996    1    1    2    0    0 -0.14395985517E+01  0.11170770502E+02  0.85875214607E+02  0.10000705496E+03  0.50000000000E+02 0.  0.
<mgrwt>
<rscale>  0 0.51252888E+02</rscale>
<asrwt>0</asrwt>
<pdfrwt beam="1">  1       13 0.10000000E+01 0.51252888E+02</pdfrwt>
<pdfrwt beam="2">  1       22 0.11559211E+00 0.51252888E+02</pdfrwt>
<totfact> 0.11359653E+00</totfact>
</mgrwt>
</event>
<event>
 4    1  0.2486873E+000  0.5595668E+02  0.7957747E-01  0.1415628E+00
         13   -1    0    0    0    0  0.00000000000E+00  0.00000000000E+00  0.99999944179E+02  0.99999999999E+02  0.10566000000E+00 0. -1.
         22   -1    0    0    0    0 -0.00000000000E+00 -0.00000000000E+00 -0.16516587612E+02  0.16516587612E+02  0.00000000000E+00 0. -1.
         13    1    1    2    0    0 -0.83839659575E+01 -0.23682456939E+02  0.29741276520E+02  0.38932047787E+02  0.10566000000E+00 0.  1.
        996    1    1    2    0    0  0.83839659575E+01  0.23682456939E+02  0.53742080047E+02  0.77584539824E+02  0.50000000000E+02 0.  0.
<mgrwt>
<rscale>  0 0.55956677E+02</rscale>
<asrwt>0</asrwt>
<pdfrwt beam="1">  1       13 0.10000000E+01 0.55956677E+02</pdfrwt>
<pdfrwt beam="2">  1       22 0.16516611E+00 0.55956677E+02</pdfrwt>
<totfact> 0.64410416E-01</totfact>
</mgrwt>
</event>
<event>
 4    1  0.2486873E+000  0.5258963E+02  0.7957747E-01  0.1431854E+00
         13   -1    0    0    0    0  0.00000000000E+00  0.00000000000E+00  0.99999944178E+02  0.99999999998E+02  0.10566000000E+00 0. -1.
         22   -1    0    0    0    0 -0.00000000000E+00 -0.00000000000E+00 -0.12936894868E+02  0.12936894868E+02  0.00000000000E+00 0.  1.
         13    1    1    2    0    0 -0.33841033592E+01  0.15944170279E+02  0.84621814052E+01  0.18365413135E+02  0.10566000000E+00 0.  1.
        996    1    1    2    0    0  0.33841033592E+01 -0.15944170279E+02  0.78600867905E+02  0.94571481731E+02  0.50000000000E+02 0.  0.
<mgrwt>
<rscale>  0 0.52589626E+02</rscale>
<asrwt>0</asrwt>
<pdfrwt beam="1">  1       13 0.10000000E+01 0.52589626E+02</pdfrwt>
<pdfrwt beam="2">  1       22 0.12936919E+00 0.52589626E+02</pdfrwt>
<totfact> 0.95778100E-01</totfact>
</mgrwt>
</event>
<event>
 4    1  0.2486873E+000  0.5184856E+02  0.7957747E-01  0.1435619E+00
         13   -1    0    0    0    0  0.00000000000E+00  0.00000000000E+00  0.99999944177E+02  0.99999999997E+02  0.10566000000E+00 0.  1.
         22   -1    0    0    0    0 -0.00000000000E+00 -0.00000000000E+00 -0.34546570598E+02  0.34546570598E+02  0.00000000000E+00 0. -1.
         13    1    1    2    0    0  0.12897000733E+02  0.46840921847E+01 -0.26011055539E+02  0.29408494042E+02  0.10566000000E+00 0. -1.
        996    1    1    2    0    0 -0.12897000733E+02 -0.46840921847E+01  0.91464429118E+02  0.10513807655E+03  0.50000000000E+02 0.  0.
<mgrwt>
<rscale>  0 0.51848562E+02</rscale>
<asrwt>0</asrwt>
<pdfrwt beam="1">  1       13 0.10000000E+01 0.51848562E+02</pdfrwt>
<pdfrwt beam="2">  1       22 0.34546589E+00 0.51848562E+02</pdfrwt>
<totfact> 0.16073050E-01</totfact>
</mgrwt>
</event>
<event>
 4    1  0.2486873E+000  0.5158988E+02  0.7957747E-01  0.1436950E+00
         13   -1    0    0    0    0  0.00000000000E+00  0.00000000000E+00  0.99999944180E+02  0.10000000000E+03  0.10566000000E+00 0.  1.
         22   -1    0    0    0    0 -0.00000000000E+00 -0.00000000000E+00 -0.22056424088E+02  0.22056424088E+02  0.00000000000E+00 0. -1.
         13    1    1    2    0    0 -0.11746827913E+01  0.12654465969E+02 -0.12568364083E+02  0.17874292389E+02  0.10566000000E+00 0. -1.
        996    1    1    2    0    0  0.11746827913E+01 -0.12654465969E+02  0.90511884175E+02  0.10418213170E+03  0.50000000000E+02 0.  0.
<mgrwt>
<rscale>  0 0.51589877E+02</rscale>
<asrwt>0</asrwt>
<pdfrwt beam="1">  1       13 0.10000000E+01 0.51589877E+02</pdfrwt>
<pdfrwt beam="2">  1       22 0.22056446E+00 0.51589877E+02</pdfrwt>
<totfact> 0.37608779E-01</totfact>
</mgrwt>
</event>
<event>
 4    1  0.2486873E+000  0.5151998E+02  0.7957747E-01  0.1437311E+00
         13   -1    0    0    0    0  0.00000000000E+00  0.00000000000E+00  0.99999944176E+02  0.99999999996E+02  0.10566000000E+00 0. -1.
         22   -1    0    0    0    0 -0.00000000000E+00 -0.00000000000E+00 -0.12463694628E+02  0.12463694628E+02  0.00000000000E+00 0. -1.
         13    1    1    2    0    0 -0.10655171254E+02 -0.63855432269E+01  0.19606364310E+01  0.12576291028E+02  0.10566000000E+00 0.  1.
        996    1    1    2    0    0  0.10655171254E+02  0.63855432269E+01  0.85575613118E+02  0.99887403596E+02  0.50000000000E+02 0.  0.
<mgrwt>
<rscale>  0 0.51519975E+02</rscale>
<asrwt>0</asrwt>
<pdfrwt beam="1">  1       13 0.10000000E+01 0.51519975E+02</pdfrwt>
<pdfrwt beam="2">  1       22 0.12463719E+00 0.51519975E+02</pdfrwt>
<totfact> 0.10128273E+00</totfact>
</mgrwt>
</event>
<event>
 4    1  0.2486873E+000  0.6318284E+02  0.7957747E-01  0.1384940E+00
         13   -1    0    0    0    0  0.00000000000E+00  0.00000000000E+00  0.99999944176E+02  0.99999999996E+02  0.10566000000E+00 0. -1.
         22   -1    0    0    0    0 -0.00000000000E+00 -0.00000000000E+00 -0.64587239978E+02  0.64587239978E+02  0.00000000000E+00 0.  1.
         13    1    1    2    0    0  0.23507925266E+02 -0.30650425795E+02 -0.46939356114E+02  0.60789682251E+02  0.10566000000E+00 0.  1.
        996    1    1    2    0    0 -0.23507925266E+02  0.30650425795E+02  0.82352060312E+02  0.10379755772E+03  0.50000000000E+02 0.  0.
<mgrwt>
<rscale>  0 0.63182839E+02</rscale>
<asrwt>0</asrwt>
<pdfrwt beam="1">  1       13 0.10000000E+01 0.63182839E+02</pdfrwt>
<pdfrwt beam="2">  1       22 0.64587250E+00 0.63182839E+02</pdfrwt>
<totfact> 0.85360842E-02</totfact>
</mgrwt>
</event>
<event>
 4    1  0.2486873E+000  0.5441800E+02  0.7957747E-01  0.1422871E+00
         13   -1    0    0    0    0  0.00000000000E+00  0.00000000000E+00  0.99999944181E+02  0.10000000000E+03  0.10566000000E+00 0. -1.
         22   -1    0    0    0    0 -0.00000000000E+00 -0.00000000000E+00 -0.24329553388E+02  0.24329553388E+02  0.00000000000E+00 0. -1.
         13    1    1    2    0    0  0.20638438353E+02 -0.59475876737E+01 -0.93174516992E+01  0.23412496813E+02  0.10566000000E+00 0.  1.
        996    1    1    2    0    0 -0.20638438353E+02  0.59475876737E+01  0.84987842492E+02  0.10091705658E+03  0.50000000000E+02 0.  0.
<mgrwt>
<rscale>  0 0.54418002E+02</rscale>
<asrwt>0</asrwt>
<pdfrwt beam="1">  1       13 0.10000000E+01 0.54418002E+02</pdfrwt>
<pdfrwt beam="2">  1       22 0.24329575E+00 0.54418002E+02</pdfrwt>
<totfact> 0.31214557E-01</totfact>
</mgrwt>
</event>
<event>
 4    1  0.2486873E+000  0.5103520E+02  0.7957747E-01  0.1439837E+00
         13   -1    0    0    0    0  0.00000000000E+00  0.00000000000E+00  0.99999944176E+02  0.99999999997E+02  0.10566000000E+00 0.  1.
         22   -1    0    0    0    0 -0.00000000000E+00 -0.00000000000E+00 -0.10005113369E+02  0.10005113369E+02  0.00000000000E+00 0.  1.
         13    1    1    2    0    0  0.83590751933E+01  0.58921419827E+01  0.64064600532E+01  0.12068362345E+02  0.10566000000E+00 0. -1.
        996    1    1    2    0    0 -0.83590751933E+01 -0.58921419827E+01  0.83588370754E+02  0.97936751021E+02  0.50000000000E+02 0.  0.
<mgrwt>
<rscale>  0 0.51035198E+02</rscale>
<asrwt>0</asrwt>
<pdfrwt beam="1">  1       13 0.10000000E+01 0.51035198E+02</pdfrwt>
<pdfrwt beam="2">  1       22 0.10005138E+00 0.51035198E+02</pdfrwt>
<totfact> 0.14054544E+00</totfact>
</mgrwt>
</event>
<event>
 4    1  0.2486873E+000  0.5107738E+02  0.7957747E-01  0.1439616E+00
         13   -1    0    0    0    0  0.00000000000E+00  0.00000000000E+00  0.99999944173E+02  0.99999999993E+02  0.10566000000E+00 0. -1.
         22   -1    0    0    0    0 -0.00000000000E+00 -0.00000000000E+00 -0.15531796257E+02  0.15531796257E+02  0.00000000000E+00 0. -1.
         13    1    1    2    0    0  0.10409432917E+02  0.73645590977E+00 -0.57078165403E+01  0.11894914655E+02  0.10566000000E+00 0.  1.
        996    1    1    2    0    0 -0.10409432917E+02 -0.73645590977E+00  0.90175964457E+02  0.10363688159E+03  0.50000000000E+02 0.  0.
<mgrwt>
<rscale>  0 0.51077379E+02</rscale>
<asrwt>0</asrwt>
<pdfrwt beam="1">  1       13 0.10000000E+01 0.51077379E+02</pdfrwt>
<pdfrwt beam="2">  1       22 0.15531820E+00 0.51077379E+02</pdfrwt>
<totfact> 0.70886976E-01</totfact>
</mgrwt>
</event>
<event>
 4    1  0.2486873E+000  0.5121135E+02  0.7957747E-01  0.1438915E+00
         13   -1    0    0    0    0  0.00000000000E+00  0.00000000000E+00  0.99999944173E+02  0.99999999993E+02  0.10566000000E+00 0.  1.
         22   -1    0    0    0    0 -0.00000000000E+00 -0.00000000000E+00 -0.11143086838E+02  0.11143086838E+02  0.00000000000E+00 0.  1.
         13    1    1    2    0    0 -0.45063909090E+01 -0.10114083410E+02  0.35196399640E+01  0.11619004766E+02  0.10566000000E+00 0. -1.
        996    1    1    2    0    0  0.45063909090E+01  0.10114083410E+02  0.85337217370E+02  0.99524082064E+02  0.50000000000E+02 0.  0.
<mgrwt>
<rscale>  0 0.51211349E+02</rscale>
<asrwt>0</asrwt>
<pdfrwt beam="1">  1       13 0.10000000E+01 0.51211349E+02</pdfrwt>
<pdfrwt beam="2">  1       22 0.11143112E+00 0.51211349E+02</pdfrwt>
<totfact> 0.12001377E+00</totfact>
</mgrwt>
</event>
<event>
 4    1  0.2486873E+000  0.5623612E+02  0.7957747E-01  0.1414342E+00
         13   -1    0    0    0    0  0.00000000000E+00  0.00000000000E+00  0.99999944180E+02  0.10000000000E+03  0.10566000000E+00 0. -1.
         22   -1    0    0    0    0 -0.00000000000E+00 -0.00000000000E+00 -0.50531653573E+02  0.50531653573E+02  0.00000000000E+00 0.  1.
         13    1    1    2    0    0  0.25526708786E+02  0.32996961694E+01 -0.38388010021E+02  0.46218517217E+02  0.10566000000E+00 0.  1.
        996    1    1    2    0    0 -0.25526708786E+02 -0.32996961694E+01  0.87856300629E+02  0.10431313636E+03  0.50000000000E+02 0.  0.
<mgrwt>
<rscale>  0 0.56236117E+02</rscale>
<asrwt>0</asrwt>
<pdfrwt beam="1">  1       13 0.10000000E+01 0.56236117E+02</pdfrwt>
<pdfrwt beam="2">  1       22 0.50531667E+00 0.56236117E+02</pdfrwt>
<totfact> 0.71639305E-02</totfact>
</mgrwt>
</event>
<event>
 4    1  0.2486873E+000  0.5241096E+02  0.7957747E-01  0.1432755E+00
         13   -1    0    0    0    0  0.00000000000E+00  0.00000000000E+00  0.99999944172E+02  0.99999999992E+02  0.10566000000E+00 0.  1.
         22   -1    0    0    0    0 -0.00000000000E+00 -0.00000000000E+00 -0.17357693490E+02  0.17357693490E+02  0.00000000000E+00 0. -1.
         13    1    1    2    0    0  0.12093211797E+02 -0.10033118969E+02 -0.38925255497E+01  0.16188643149E+02  0.10566000000E+00 0. -1.
        996    1    1    2    0    0 -0.12093211797E+02  0.10033118969E+02  0.86534776232E+02  0.10116905033E+03  0.50000000000E+02 0.  0.
<mgrwt>
<rscale>  0 0.52410965E+02</rscale>
<asrwt>0</asrwt>
<pdfrwt beam="1">  1       13 0.10000000E+01 0.52410965E+02</pdfrwt>
<pdfrwt beam="2">  1       22 0.17357717E+00 0.52410965E+02</pdfrwt>
<totfact> 0.58657262E-01</totfact>
</mgrwt>
</event>
<event>
 4    1  0.2486873E+000  0.5170766E+02  0.7957747E-01  0.1436343E+00
         13   -1    0    0    0    0  0.00000000000E+00  0.00000000000E+00  0.99999944178E+02  0.99999999998E+02  0.10566000000E+00 0.  1.
         22   -1    0    0    0    0 -0.00000000000E+00 -0.00000000000E+00 -0.13850768088E+02  0.13850768088E+02  0.00000000000E+00 0. -1.
         13    1    1    2    0    0  0.13177226240E+02  0.20637864414E+00 -0.22604723209E+00  0.13181204228E+02  0.10566000000E+00 0. -1.
        996    1    1    2    0    0 -0.13177226240E+02 -0.20637864414E+00  0.86375223322E+02  0.10066956386E+03  0.50000000000E+02 0.  0.
<mgrwt>
<rscale>  0 0.51707658E+02</rscale>
<asrwt>0</asrwt>
<pdfrwt beam="1">  1       13 0.10000000E+01 0.51707658E+02</pdfrwt>
<pdfrwt beam="2">  1       22 0.13850792E+00 0.51707658E+02</pdfrwt>
<totfact> 0.85748756E-01</totfact>
</mgrwt>
</event>
<event>
 4    1  0.2486873E+000  0.5210741E+02  0.7957747E-01  0.1434295E+00
         13   -1    0    0    0    0  0.00000000000E+00  0.00000000000E+00  0.99999944180E+02  0.10000000000E+03  0.10566000000E+00 0. -1.
         22   -1    0    0    0    0 -0.00000000000E+00 -0.00000000000E+00 -0.13293490622E+02  0.13293490622E+02  0.00000000000E+00 0.  1.
         13    1    1    2    0    0 -0.68774126353E+01  0.12956988608E+02  0.34410153835E+01  0.15067651086E+02  0.10566000000E+00 0.  1.
        996    1    1    2    0    0  0.68774126353E+01 -0.12956988608E+02  0.83265438174E+02  0.98225839536E+02  0.50000000000E+02 0.  0.
<mgrwt>
<rscale>  0 0.52107412E+02</rscale>
<asrwt>0</asrwt>
<pdfrwt beam="1">  1       13 0.10000000E+01 0.52107412E+02</pdfrwt>
<pdfrwt beam="2">  1       22 0.13293515E+00 0.52107412E+02</pdfrwt>
<totfact> 0.91653584E-01</totfact>
</mgrwt>
</event>
<event>
 4    1  0.2486873E+000  0.5137801E+02  0.7957747E-01  0.1438048E+00
         13   -1    0    0    0    0  0.00000000000E+00  0.00000000000E+00  0.99999944176E+02  0.99999999996E+02  0.10566000000E+00 0.  1.
         22   -1    0    0    0    0 -0.00000000000E+00 -0.00000000000E+00 -0.11653488156E+02  0.11653488156E+02  0.00000000000E+00 0. -1.
         13    1    1    2    0    0  0.11809260975E+02 -0.49142678023E+00  0.32650603666E+01  0.12262623222E+02  0.10566000000E+00 0. -1.
        996    1    1    2    0    0 -0.11809260975E+02  0.49142678023E+00  0.85081395654E+02  0.99390864930E+02  0.50000000000E+02 0.  0.
<mgrwt>
<rscale>  0 0.51378012E+02</rscale>
<asrwt>0</asrwt>
<pdfrwt beam="1">  1       13 0.10000000E+01 0.51378012E+02</pdfrwt>
<pdfrwt beam="2">  1       22 0.11653513E+00 0.51378012E+02</pdfrwt>
<totfact> 0.11224145E+00</totfact>
</mgrwt>
</event>
<event>
 4    1  0.2486873E+000  0.5811808E+02  0.7957747E-01  0.1405903E+00
         13   -1    0    0    0    0  0.00000000000E+00  0.00000000000E+00  0.99999944180E+02  0.10000000000E+03  0.10566000000E+00 0. -1.
         22   -1    0    0    0    0 -0.00000000000E+00 -0.00000000000E+00 -0.41730495660E+02  0.41730495660E+02  0.00000000000E+00 0.  1.
         13    1    1    2    0    0  0.16068324757E+02  0.24890163533E+02 -0.25963556143E+02  0.39393257200E+02  0.10566000000E+00 0.  1.
        996    1    1    2    0    0 -0.16068324757E+02 -0.24890163533E+02  0.84233004663E+02  0.10233723846E+03  0.50000000000E+02 0.  0.
<mgrwt>
<rscale>  0 0.58118081E+02</rscale>
<asrwt>0</asrwt>
<pdfrwt beam="1">  1       13 0.10000000E+01 0.58118081E+02</pdfrwt>
<pdfrwt beam="2">  1       22 0.41730512E+00 0.58118081E+02</pdfrwt>
<totfact> 0.11430620E-01</totfact>
</mgrwt>
</event>
<event>
 4    1  0.2486873E+000  0.6122008E+02  0.7957747E-01  0.1392782E+00
         13   -1    0    0    0    0  0.00000000000E+00  0.00000000000E+00  0.99999944179E+02  0.99999999999E+02  0.10566000000E+00 0.  1.
         22   -1    0    0    0    0 -0.00000000000E+00 -0.00000000000E+00 -0.36508033896E+02  0.36508033896E+02  0.00000000000E+00 0. -1.
         13    1    1    2    0    0  0.32795753599E+02 -0.13127697549E+02  0.66407270950E+02  0.75218579461E+02  0.10566000000E+00 0. -1.
        996    1    1    2    0    0 -0.32795753599E+02  0.13127697549E+02 -0.29153606669E+01  0.61289454435E+02  0.50000000000E+02 0.  0.
<mgrwt>
<rscale>  0 0.61220078E+02</rscale>
<asrwt>0</asrwt>
<pdfrwt beam="1">  1       13 0.10000000E+01 0.61220078E+02</pdfrwt>
<pdfrwt beam="2">  1       22 0.36508052E+00 0.61220078E+02</pdfrwt>
<totfact> 0.14715709E-01</totfact>
</mgrwt>
</event>
<event>
 4    1  0.2486873E+000  0.5308088E+02  0.7957747E-01  0.1429399E+00
         13   -1    0    0    0    0  0.00000000000E+00  0.00000000000E+00  0.99999944182E+02  0.10000000000E+03  0.10566000000E+00 0. -1.
         22   -1    0    0    0    0 -0.00000000000E+00 -0.00000000000E+00 -0.15714161695E+02  0.15714161695E+02  0.00000000000E+00 0.  1.
         13    1    1    2    0    0 -0.14371380717E+02 -0.10537728728E+02  0.21933802942E+01  0.17955567148E+02  0.10566000000E+00 0.  1.
        996    1    1    2    0    0  0.14371380717E+02  0.10537728728E+02  0.82092402193E+02  0.97758594549E+02  0.50000000000E+02 0.  0.
<mgrwt>
<rscale>  0 0.53080885E+02</rscale>
<asrwt>0</asrwt>
<pdfrwt beam="1">  1       13 0.10000000E+01 0.53080885E+02</pdfrwt>
<pdfrwt beam="2">  1       22 0.15714185E+00 0.53080885E+02</pdfrwt>
<totfact> 0.69779616E-01</totfact>
</mgrwt>
</event>
<event>
 4    1  0.2486873E+000  0.5167321E+02  0.7957747E-01  0.1436520E+00
         13   -1    0    0    0    0  0.00000000000E+00  0.00000000000E+00  0.99999944174E+02  0.99999999994E+02  0.10566000000E+00 0. -1.
         22   -1    0    0    0    0 -0.00000000000E+00 -0.00000000000E+00 -0.19056025632E+02  0.19056025632E+02  0.00000000000E+00 0.  1.
         13    1    1    2    0    0  0.87088946054E+01 -0.97095687618E+01 -0.86343412508E+01  0.15642365028E+02  0.10566000000E+00 0.  1.
        996    1    1    2    0    0 -0.87088946054E+01  0.97095687618E+01  0.89578259793E+02  0.10341366060E+03  0.50000000000E+02 0.  0.
<mgrwt>
<rscale>  0 0.51673209E+02</rscale>
<asrwt>0</asrwt>
<pdfrwt beam="1">  1       13 0.10000000E+01 0.51673209E+02</pdfrwt>
<pdfrwt beam="2">  1       22 0.19056048E+00 0.51673209E+02</pdfrwt>
<totfact> 0.49515527E-01</totfact>
</mgrwt>
</event>
<event>
 4    1  0.2486873E+000  0.5239075E+02  0.7957747E-01  0.1432857E+00
         13   -1    0    0    0    0  0.00000000000E+00  0.00000000000E+00  0.99999944179E+02  0.99999999999E+02  0.10566000000E+00 0. -1.
         22   -1    0    0    0    0 -0.00000000000E+00 -0.00000000000E+00 -0.24085807749E+02  0.24085807749E+02  0.00000000000E+00 0.  1.
         13    1    1    2    0    0 -0.11335262252E+02 -0.10784356473E+02 -0.13360074517E+02  0.20574092203E+02  0.10566000000E+00 0.  1.
        996    1    1    2    0    0  0.11335262252E+02  0.10784356473E+02  0.89274210947E+02  0.10351171554E+03  0.50000000000E+02 0.  0.
<mgrwt>
<rscale>  0 0.52390748E+02</rscale>
<asrwt>0</asrwt>
<pdfrwt beam="1">  1       13 0.10000000E+01 0.52390748E+02</pdfrwt>
<pdfrwt beam="2">  1       22 0.24085829E+00 0.52390748E+02</pdfrwt>
<totfact> 0.31736915E-01</totfact>
</mgrwt>
</event>
<event>
 4    1  0.2486873E+000  0.5162815E+02  0.7957747E-01  0.1436752E+00
         13   -1    0    0    0    0  0.00000000000E+00  0.00000000000E+00  0.99999944175E+02  0.99999999995E+02  0.10566000000E+00 0.  1.
         22   -1    0    0    0    0 -0.00000000000E+00 -0.00000000000E+00 -0.20586864746E+02  0.20586864746E+02  0.00000000000E+00 0. -1.
         13    1    1    2    0    0 -0.12660390367E+02  0.22761336752E+01 -0.10699847791E+02  0.16732130036E+02  0.10566000000E+00 0. -1.
        996    1    1    2    0    0  0.12660390367E+02 -0.22761336752E+01  0.90112927219E+02  0.10385473471E+03  0.50000000000E+02 0.  0.
<mgrwt>
<rscale>  0 0.51628154E+02</rscale>
<asrwt>0</asrwt>
<pdfrwt beam="1">  1       13 0.10000000E+01 0.51628154E+02</pdfrwt>
<pdfrwt beam="2">  1       22 0.20586887E+00 0.51628154E+02</pdfrwt>
<totfact> 0.42888320E-01</totfact>
</mgrwt>
</event>
<event>
 4    1  0.2486873E+000  0.5133229E+02  0.7957747E-01  0.1438285E+00
         13   -1    0    0    0    0  0.00000000000E+00  0.00000000000E+00  0.99999944187E+02  0.10000000001E+03  0.10566000000E+00 0. -1.
         22   -1    0    0    0    0 -0.00000000000E+00 -0.00000000000E+00 -0.10284520533E+02  0.10284520533E+02  0.00000000000E+00 0. -1.
         13    1    1    2    0    0  0.90906577096E+01 -0.72363131727E+01  0.93049496892E+01  0.14886152582E+02  0.10566000000E+00 0.  1.
        996    1    1    2    0    0 -0.90906577096E+01  0.72363131727E+01  0.80410473964E+02  0.95398367958E+02  0.50000000000E+02 0.  0.
<mgrwt>
<rscale>  0 0.51332293E+02</rscale>
<asrwt>0</asrwt>
<pdfrwt beam="1">  1       13 0.10000000E+01 0.51332293E+02</pdfrwt>
<pdfrwt beam="2">  1       22 0.10284546E+00 0.51332293E+02</pdfrwt>
<totfact> 0.13512708E+00</totfact>
</mgrwt>
</event>
<event>
 4    1  0.2486873E+000  0.6066173E+02  0.7957747E-01  0.1395076E+00
         13   -1    0    0    0    0  0.00000000000E+00  0.00000000000E+00  0.99999944181E+02  0.10000000000E+03  0.10566000000E+00 0.  1.
         22   -1    0    0    0    0 -0.00000000000E+00 -0.00000000000E+00 -0.40283453750E+02  0.40283453750E+02  0.00000000000E+00 0. -1.
         13    1    1    2    0    0  0.32392787768E+02 -0.11425987330E+02 -0.20279061721E+02  0.39888562198E+02  0.10566000000E+00 0. -1.
        996    1    1    2    0    0 -0.32392787768E+02  0.11425987330E+02  0.79995552152E+02  0.10039489155E+03  0.50000000000E+02 0.  0.
<mgrwt>
<rscale>  0 0.60661733E+02</rscale>
<asrwt>0</asrwt>
<pdfrwt beam="1">  1       13 0.10000000E+01 0.60661733E+02</pdfrwt>
<pdfrwt beam="2">  1       22 0.40283470E+00 0.60661733E+02</pdfrwt>
<totfact> 0.12277995E-01</totfact>
</mgrwt>
</event>
<event>
 4    1  0.2486873E+000  0.5455758E+02  0.7957747E-01  0.1422203E+00
         13   -1    0    0    0    0  0.00000000000E+00  0.00000000000E+00  0.99999944177E+02  0.99999999998E+02  0.10566000000E+00 0. -1.
         22   -1    0    0    0    0 -0.00000000000E+00 -0.00000000000E+00 -0.23260730761E+02  0.23260730761E+02  0.00000000000E+00 0.  1.
         13    1    1    2    0    0  0.21371404660E+02 -0.44488696919E+01 -0.73408726631E+01  0.23031043271E+02  0.10566000000E+00 0.  1.
        996    1    1    2    0    0 -0.21371404660E+02  0.44488696919E+01  0.84080086080E+02  0.10022968749E+03  0.50000000000E+02 0.  0.
<mgrwt>
<rscale>  0 0.54557579E+02</rscale>
<asrwt>0</asrwt>
<pdfrwt beam="1">  1       13 0.10000000E+01 0.54557579E+02</pdfrwt>
<pdfrwt beam="2">  1       22 0.23260752E+00 0.54557579E+02</pdfrwt>
<totfact> 0.34092936E-01</totfact>
</mgrwt>
</event>
<event>
 4    1  0.2486873E+000  0.5136201E+02  0.7957747E-01  0.1438131E+00
         13   -1    0    0    0    0  0.00000000000E+00  0.00000000000E+00  0.99999944179E+02  0.10000000000E+03  0.10566000000E+00 0. -1.
         22   -1    0    0    0    0 -0.00000000000E+00 -0.00000000000E+00 -0.11541626059E+02  0.11541626059E+02  0.00000000000E+00 0. -1.
         13    1    1    2    0    0 -0.17244722292E+01 -0.11622476996E+02  0.34929911101E+01  0.12258381904E+02  0.10566000000E+00 0.  1.
        996    1    1    2    0    0  0.17244722292E+01  0.11622476996E+02  0.84965327010E+02  0.99283244155E+02  0.50000000000E+02 0.  0.
<mgrwt>
<rscale>  0 0.51362007E+02</rscale>
<asrwt>0</asrwt>
<pdfrwt beam="1">  1       13 0.10000000E+01 0.51362007E+02</pdfrwt>
<pdfrwt beam="2">  1       22 0.11541651E+00 0.51362007E+02</pdfrwt>
<totfact> 0.11388619E+00</totfact>
</mgrwt>
</event>
<event>
 4    1  0.2486873E+000  0.6415659E+02  0.7957747E-01  0.1381172E+00
         13   -1    0    0    0    0  0.00000000000E+00  0.00000000000E+00  0.99999944178E+02  0.99999999999E+02  0.10566000000E+00 0.  1.
         22   -1    0    0    0    0 -0.00000000000E+00 -0.00000000000E+00 -0.45650634382E+02  0.45650634382E+02  0.00000000000E+00 0. -1.
         13    1    1    2    0    0  0.40191892709E+02 -0.82415861746E+00 -0.22078598515E+02  0.45864399630E+02  0.10566000000E+00 0. -1.
        996    1    1    2    0    0 -0.40191892709E+02  0.82415861746E+00  0.76427908311E+02  0.99786234751E+02  0.50000000000E+02 0.  0.
<mgrwt>
<rscale>  0 0.64156586E+02</rscale>
<asrwt>0</asrwt>
<pdfrwt beam="1">  1       13 0.10000000E+01 0.64156586E+02</pdfrwt>
<pdfrwt beam="2">  1       22 0.45650650E+00 0.64156586E+02</pdfrwt>
<totfact> 0.93967291E-02</totfact>
</mgrwt>
</event>
<event>
 4    1  0.2486873E+000  0.5297149E+02  0.7957747E-01  0.1429943E+00
         13   -1    0    0    0    0  0.00000000000E+00  0.00000000000E+00  0.99999944182E+02  0.10000000000E+03  0.10566000000E+00 0.  1.
         22   -1    0    0    0    0 -0.00000000000E+00 -0.00000000000E+00 -0.12449139523E+02  0.12449139523E+02  0.00000000000E+00 0.  1.
         13    1    1    2    0    0 -0.17449517285E+02  0.12219423448E+01  0.24419404159E+02  0.30038263267E+02  0.10566000000E+00 0. -1.
        996    1    1    2    0    0  0.17449517285E+02 -0.12219423448E+01  0.63131400500E+02  0.82410876259E+02  0.50000000000E+02 0.  0.
<mgrwt>
<rscale>  0 0.52971490E+02</rscale>
<asrwt>0</asrwt>
<pdfrwt beam="1">  1       13 0.10000000E+01 0.52971490E+02</pdfrwt>
<pdfrwt beam="2">  1       22 0.12449164E+00 0.52971490E+02</pdfrwt>
<totfact> 0.10178983E+00</totfact>
</mgrwt>
</event>
<event>
 4    1  0.2486873E+000  0.5537307E+02  0.7957747E-01  0.1418343E+00
         13   -1    0    0    0    0  0.00000000000E+00  0.00000000000E+00  0.99999944171E+02  0.99999999992E+02  0.10566000000E+00 0.  1.
         22   -1    0    0    0    0 -0.00000000000E+00 -0.00000000000E+00 -0.19113802040E+02  0.19113802040E+02  0.00000000000E+00 0. -1.
         13    1    1    2    0    0 -0.13010452080E+02 -0.19922469763E+02  0.36408367251E+01  0.24071633116E+02  0.10566000000E+00 0. -1.
        996    1    1    2    0    0  0.13010452080E+02  0.19922469763E+02  0.77245305407E+02  0.95042168915E+02  0.50000000000E+02 0.  0.
<mgrwt>
<rscale>  0 0.55373068E+02</rscale>
<asrwt>0</asrwt>
<pdfrwt beam="1">  1       13 0.10000000E+01 0.55373068E+02</pdfrwt>
<pdfrwt beam="2">  1       22 0.19113825E+00 0.55373068E+02</pdfrwt>
<totfact> 0.49566926E-01</totfact>
</mgrwt>
</event>
<event>
 4    1  0.2486873E+000  0.5583998E+02  0.7957747E-01  0.1416168E+00
         13   -1    0    0    0    0  0.00000000000E+00  0.00000000000E+00  0.99999944183E+02  0.10000000000E+03  0.10566000000E+00 0.  1.
         22   -1    0    0    0    0 -0.00000000000E+00 -0.00000000000E+00 -0.21721240374E+02  0.21721240374E+02  0.00000000000E+00 0. -1.
         13    1    1    2    0    0 -0.12888866401E+02 -0.21259825292E+02 -0.84674088750E+00  0.24876317708E+02  0.10566000000E+00 0. -1.
        996    1    1    2    0    0  0.12888866401E+02  0.21259825292E+02  0.79125444696E+02  0.96844922669E+02  0.50000000000E+02 0.  0.
<mgrwt>
<rscale>  0 0.55839977E+02</rscale>
<asrwt>0</asrwt>
<pdfrwt beam="1">  1       13 0.10000000E+01 0.55839977E+02</pdfrwt>
<pdfrwt beam="2">  1       22 0.21721262E+00 0.55839977E+02</pdfrwt>
<totfact> 0.39004896E-01</totfact>
</mgrwt>
</event>
<event>
 4    1  0.2486873E+000  0.5406172E+02  0.7957747E-01  0.1424589E+00
         13   -1    0    0    0    0  0.00000000000E+00  0.00000000000E+00  0.99999944184E+02  0.10000000000E+03  0.10566000000E+00 0. -1.
         22   -1    0    0    0    0 -0.00000000000E+00 -0.00000000000E+00 -0.22447459302E+02  0.22447459302E+02  0.00000000000E+00 0.  1.
         13    1    1    2    0    0  0.18058332972E+02  0.98268325220E+01 -0.73165420366E+01  0.21822304611E+02  0.10566000000E+00 0.  1.
        996    1    1    2    0    0 -0.18058332972E+02 -0.98268325220E+01  0.84869026919E+02  0.10062515469E+03  0.50000000000E+02 0.  0.
<mgrwt>
<rscale>  0 0.54061724E+02</rscale>
<asrwt>0</asrwt>
<pdfrwt beam="1">  1       13 0.10000000E+01 0.54061724E+02</pdfrwt>
<pdfrwt beam="2">  1       22 0.22447481E+00 0.54061724E+02</pdfrwt>
<totfact> 0.36505236E-01</totfact>
</mgrwt>
</event>
<event>
 4    1  0.2486873E+000  0.6010878E+02  0.7957747E-01  0.1397376E+00
         13   -1    0    0    0    0  0.00000000000E+00  0.00000000000E+00  0.99999944177E+02  0.99999999997E+02  0.10566000000E+00 0.  1.
         22   -1    0    0    0    0 -0.00000000000E+00 -0.00000000000E+00 -0.40415494176E+02  0.40415494176E+02  0.00000000000E+00 0. -1.
         13    1    1    2    0    0 -0.38417771462E+01  0.33140708021E+02 -0.21344199039E+02  0.39606208812E+02  0.10566000000E+00 0. -1.
        996    1    1    2    0    0  0.38417771462E+01 -0.33140708021E+02  0.80928649040E+02  0.10080928536E+03  0.50000000000E+02 0.  0.
<mgrwt>
<rscale>  0 0.60108783E+02</rscale>
<asrwt>0</asrwt>
<pdfrwt beam="1">  1       13 0.10000000E+01 0.60108783E+02</pdfrwt>
<pdfrwt beam="2">  1       22 0.40415511E+00 0.60108783E+02</pdfrwt>
<totfact> 0.12196074E-01</totfact>
</mgrwt>
</event>
<event>
 4    1  0.2486873E+000  0.5105432E+02  0.7957747E-01  0.1439736E+00
         13   -1    0    0    0    0  0.00000000000E+00  0.00000000000E+00  0.99999944176E+02  0.99999999997E+02  0.10566000000E+00 0. -1.
         22   -1    0    0    0    0 -0.00000000000E+00 -0.00000000000E+00 -0.10506568972E+02  0.10506568972E+02  0.00000000000E+00 0. -1.
         13    1    1    2    0    0  0.65893300811E+01  0.79450684549E+01  0.42909700369E+01  0.11178862713E+02  0.10566000000E+00 0.  1.
        996    1    1    2    0    0 -0.65893300811E+01 -0.79450684549E+01  0.85202405167E+02  0.99327706255E+02  0.50000000000E+02 0.  0.
<mgrwt>
<rscale>  0 0.51054318E+02</rscale>
<asrwt>0</asrwt>
<pdfrwt beam="1">  1       13 0.10000000E+01 0.51054318E+02</pdfrwt>
<pdfrwt beam="2">  1       22 0.10506594E+00 0.51054318E+02</pdfrwt>
<totfact> 0.13088141E+00</totfact>
</mgrwt>
</event>
<event>
 4    1  0.2486873E+000  0.5187683E+02  0.7957747E-01  0.1435474E+00
         13   -1    0    0    0    0  0.00000000000E+00  0.00000000000E+00  0.99999944179E+02  0.99999999999E+02  0.10566000000E+00 0. -1.
         22   -1    0    0    0    0 -0.00000000000E+00 -0.00000000000E+00 -0.24904710059E+02  0.24904710059E+02  0.00000000000E+00 0.  1.
         13    1    1    2    0    0 -0.66876089527E+01  0.12102967752E+02 -0.15336278870E+02  0.20649904492E+02  0.10566000000E+00 0.  1.
        996    1    1    2    0    0  0.66876089527E+01 -0.12102967752E+02  0.90431512990E+02  0.10425480557E+03  0.50000000000E+02 0.  0.
<mgrwt>
<rscale>  0 0.51876834E+02</rscale>
<asrwt>0</asrwt>
<pdfrwt beam="1">  1       13 0.10000000E+01 0.51876834E+02</pdfrwt>
<pdfrwt beam="2">  1       22 0.24904731E+00 0.51876834E+02</pdfrwt>
<totfact> 0.29695816E-01</totfact>
</mgrwt>
</event>
<event>
 4    1  0.2486873E+000  0.5164819E+02  0.7957747E-01  0.1436649E+00
         13   -1    0    0    0    0  0.00000000000E+00  0.00000000000E+00  0.99999944176E+02  0.99999999996E+02  0.10566000000E+00 0. -1.
         22   -1    0    0    0    0 -0.00000000000E+00 -0.00000000000E+00 -0.11713507993E+02  0.11713507993E+02  0.00000000000E+00 0. -1.
         13    1    1    2    0    0  0.58460400332E+01 -0.11548119008E+02  0.53416372162E+01  0.14002838601E+02  0.10566000000E+00 0.  1.
        996    1    1    2    0    0 -0.58460400332E+01  0.11548119008E+02  0.82944798967E+02  0.97710669389E+02  0.50000000000E+02 0.  0.
<mgrwt>
<rscale>  0 0.51648187E+02</rscale>
<asrwt>0</asrwt>
<pdfrwt beam="1">  1       13 0.10000000E+01 0.51648187E+02</pdfrwt>
<pdfrwt beam="2">  1       22 0.11713533E+00 0.51648187E+02</pdfrwt>
<totfact> 0.11143947E+00</totfact>
</mgrwt>
</event>
<event>
 4    1  0.2486873E+000  0.5356666E+02  0.7957747E-01  0.1427001E+00
         13   -1    0    0    0    0  0.00000000000E+00  0.00000000000E+00  0.99999944171E+02  0.99999999992E+02  0.10566000000E+00 0.  1.
         22   -1    0    0    0    0 -0.00000000000E+00 -0.00000000000E+00 -0.14951572795E+02  0.14951572795E+02  0.00000000000E+00 0. -1.
         13    1    1    2    0    0  0.19219427129E+02 -0.23743656180E-01  0.73488529936E+01  0.20576776893E+02  0.10566000000E+00 0. -1.
        996    1    1    2    0    0 -0.19219427129E+02  0.23743656180E-01  0.77699518383E+02  0.94374795893E+02  0.50000000000E+02 0.  0.
<mgrwt>
<rscale>  0 0.53566659E+02</rscale>
<asrwt>0</asrwt>
<pdfrwt beam="1">  1       13 0.10000000E+01 0.53566659E+02</pdfrwt>
<pdfrwt beam="2">  1       22 0.14951597E+00 0.53566659E+02</pdfrwt>
<totfact> 0.75937885E-01</totfact>
</mgrwt>
</event>
<event>
 4    1  0.2486873E+000  0.5256042E+02  0.7957747E-01  0.1432001E+00
         13   -1    0    0    0    0  0.00000000000E+00  0.00000000000E+00  0.99999944183E+02  0.10000000000E+03  0.10566000000E+00 0.  1.
         22   -1    0    0    0    0 -0.00000000000E+00 -0.00000000000E+00 -0.12373657440E+02  0.12373657440E+02  0.00000000000E+00 0.  1.
         13    1    1    2    0    0  0.16008692409E+02 -0.25138852475E+01  0.31842146423E+02  0.35728578261E+02  0.10566000000E+00 0. -1.
        996    1    1    2    0    0 -0.16008692409E+02  0.25138852475E+01  0.55784140320E+02  0.76645079182E+02  0.50000000000E+02 0.  0.
<mgrwt>
<rscale>  0 0.52560421E+02</rscale>
<asrwt>0</asrwt>
<pdfrwt beam="1">  1       13 0.10000000E+01 0.52560421E+02</pdfrwt>
<pdfrwt beam="2">  1       22 0.12373682E+00 0.52560421E+02</pdfrwt>
<totfact> 0.10266248E+00</totfact>
</mgrwt>
</event>
<event>
 4    1  0.2486873E+000  0.5375230E+02  0.7957747E-01  0.1426093E+00
         13   -1    0    0    0    0  0.00000000000E+00  0.00000000000E+00  0.99999944184E+02  0.10000000000E+03  0.10566000000E+00 0. -1.
         22   -1    0    0    0    0 -0.00000000000E+00 -0.00000000000E+00 -0.14111036149E+02  0.14111036149E+02  0.00000000000E+00 0. -1.
         13    1    1    2    0    0 -0.14905478620E+02 -0.12928142922E+02  0.13334208113E+02  0.23814332708E+02  0.10566000000E+00 0.  1.
        996    1    1    2    0    0  0.14905478620E+02  0.12928142922E+02  0.72554699922E+02  0.90296703446E+02  0.50000000000E+02 0.  0.
<mgrwt>
<rscale>  0 0.53752304E+02</rscale>
<asrwt>0</asrwt>
<pdfrwt beam="1">  1       13 0.10000000E+01 0.53752304E+02</pdfrwt>
<pdfrwt beam="2">  1       22 0.14111060E+00 0.53752304E+02</pdfrwt>
<totfact> 0.83554007E-01</totfact>
</mgrwt>
</event>
<event>
 4    1  0.2486873E+000  0.5111435E+02  0.7957747E-01  0.1439422E+00
         13   -1    0    0    0    0  0.00000000000E+00  0.00000000000E+00  0.99999944176E+02  0.99999999997E+02  0.10566000000E+00 0. -1.
         22   -1    0    0    0    0 -0.00000000000E+00 -0.00000000000E+00 -0.11137286117E+02  0.11137286117E+02  0.00000000000E+00 0. -1.
         13    1    1    2    0    0  0.94801955633E+01 -0.47752655450E+01  0.26990503218E+01  0.10953232656E+02  0.10566000000E+00 0.  1.
        996    1    1    2    0    0 -0.94801955633E+01  0.47752655450E+01  0.86163607737E+02  0.10018405346E+03  0.50000000000E+02 0.  0.
<mgrwt>
<rscale>  0 0.51114355E+02</rscale>
<asrwt>0</asrwt>
<pdfrwt beam="1">  1       13 0.10000000E+01 0.51114355E+02</pdfrwt>
<pdfrwt beam="2">  1       22 0.11137311E+00 0.51114355E+02</pdfrwt>
<totfact> 0.12007984E+00</totfact>
</mgrwt>
</event>
<event>
 4    1  0.2486873E+000  0.5107334E+02  0.7957747E-01  0.1439637E+00
         13   -1    0    0    0    0  0.00000000000E+00  0.00000000000E+00  0.99999944186E+02  0.10000000001E+03  0.10566000000E+00 0. -1.
         22   -1    0    0    0    0 -0.00000000000E+00 -0.00000000000E+00 -0.94586089005E+01  0.94586089005E+01  0.00000000000E+00 0. -1.
         13    1    1    2    0    0 -0.52303564096E+01 -0.90071980280E+01  0.16410542978E+02  0.19437163614E+02  0.10566000000E+00 0.  1.
        996    1    1    2    0    0  0.52303564096E+01  0.90071980280E+01  0.74130792308E+02  0.90021445293E+02  0.50000000000E+02 0.  0.
<mgrwt>
<rscale>  0 0.51073342E+02</rscale>
<asrwt>0</asrwt>
<pdfrwt beam="1">  1       13 0.10000000E+01 0.51073342E+02</pdfrwt>
<pdfrwt beam="2">  1       22 0.94586342E-01 0.51073342E+02</pdfrwt>
<totfact> 0.15237885E+00</totfact>
</mgrwt>
</event>
<event>
 4    1  0.2486873E+000  0.5272631E+02  0.7957747E-01  0.1431168E+00
         13   -1    0    0    0    0  0.00000000000E+00  0.00000000000E+00  0.99999944179E+02  0.99999999999E+02  0.10566000000E+00 0.  1.
         22   -1    0    0    0    0 -0.00000000000E+00 -0.00000000000E+00 -0.32686655954E+02  0.32686655954E+02  0.00000000000E+00 0. -1.
         13    1    1    2    0    0  0.16735094070E+02 -0.58728492902E-02 -0.22799154079E+02  0.28282079110E+02  0.10566000000E+00 0. -1.
        996    1    1    2    0    0 -0.16735094070E+02  0.58728492902E-02  0.90112442304E+02  0.10440457684E+03  0.50000000000E+02 0.  0.
<mgrwt>
<rscale>  0 0.52726307E+02</rscale>
<asrwt>0</asrwt>
<pdfrwt beam="1">  1       13 0.10000000E+01 0.52726307E+02</pdfrwt>
<pdfrwt beam="2">  1       22 0.32686675E+00 0.52726307E+02</pdfrwt>
<totfact> 0.17730070E-01</totfact>
</mgrwt>
</event>
<event>
 4    1  0.2486873E+000  0.5784713E+02  0.7957747E-01  0.1407095E+00
         13   -1    0    0    0    0  0.00000000000E+00  0.00000000000E+00  0.99999944184E+02  0.10000000000E+03  0.10566000000E+00 0. -1.
         22   -1    0    0    0    0 -0.00000000000E+00 -0.00000000000E+00 -0.66934279722E+02  0.66934279722E+02  0.00000000000E+00 0.  1.
         13    1    1    2    0    0 -0.27230685414E+02  0.10236235306E+02 -0.54621292022E+02  0.61885276500E+02  0.10566000000E+00 0.  1.
        996    1    1    2    0    0  0.27230685414E+02 -0.10236235306E+02  0.87686956484E+02  0.10504900323E+03  0.50000000000E+02 0.  0.
<mgrwt>
<rscale>  0 0.57847133E+02</rscale>
<asrwt>0</asrwt>
<pdfrwt beam="1">  1       13 0.10000000E+01 0.57847133E+02</pdfrwt>
<pdfrwt beam="2">  1       22 0.66934289E+00 0.57847133E+02</pdfrwt>
<totfact> 0.86402210E-02</totfact>
</mgrwt>
</event>
<event>
 4    1  0.2486873E+000  0.5124760E+02  0.7957747E-01  0.1438726E+00
         13   -1    0    0    0    0  0.00000000000E+00  0.00000000000E+00  0.99999944177E+02  0.99999999997E+02  0.10566000000E+00 0.  1.
         22   -1    0    0    0    0 -0.00000000000E+00 -0.00000000000E+00 -0.22415183260E+02  0.22415183260E+02  0.00000000000E+00 0. -1.
         13    1    1    2    0    0  0.10462922468E+02  0.41040935936E+01 -0.13705064875E+02  0.17724454803E+02  0.10566000000E+00 0. -1.
        996    1    1    2    0    0 -0.10462922468E+02 -0.41040935936E+01  0.91289825792E+02  0.10469072845E+03  0.50000000000E+02 0.  0.
<mgrwt>
<rscale>  0 0.51247598E+02</rscale>
<asrwt>0</asrwt>
<pdfrwt beam="1">  1       13 0.10000000E+01 0.51247598E+02</pdfrwt>
<pdfrwt beam="2">  1       22 0.22415205E+00 0.51247598E+02</pdfrwt>
<totfact> 0.36435821E-01</totfact>
</mgrwt>
</event>
<event>
 4    1  0.2486873E+000  0.5187399E+02  0.7957747E-01  0.1435488E+00
         13   -1    0    0    0    0  0.00000000000E+00  0.00000000000E+00  0.99999944179E+02  0.99999999999E+02  0.10566000000E+00 0. -1.
         22   -1    0    0    0    0 -0.00000000000E+00 -0.00000000000E+00 -0.13878230664E+02  0.13878230664E+02  0.00000000000E+00 0. -1.
         13    1    1    2    0    0 -0.98046302866E+01  0.97355278304E+01  0.57124374999E+00  0.13829271877E+02  0.10566000000E+00 0.  1.
        996    1    1    2    0    0  0.98046302866E+01 -0.97355278304E+01  0.85550469765E+02  0.10004895879E+03  0.50000000000E+02 0.  0.
<mgrwt>
<rscale>  0 0.51873994E+02</rscale>
<asrwt>0</asrwt>
<pdfrwt beam="1">  1       13 0.10000000E+01 0.51873994E+02</pdfrwt>
<pdfrwt beam="2">  1       22 0.13878255E+00 0.51873994E+02</pdfrwt>
<totfact> 0.85505127E-01</totfact>
</mgrwt>
</event>
<event>
 4    1  0.2486873E+000  0.5361299E+02  0.7957747E-01  0.1426774E+00
         13   -1    0    0    0    0  0.00000000000E+00  0.00000000000E+00  0.99999944182E+02  0.10000000000E+03  0.10566000000E+00 0.  1.
         22   -1    0    0    0    0 -0.00000000000E+00 -0.00000000000E+00 -0.30717366574E+02  0.30717366574E+02  0.00000000000E+00 0. -1.
         13    1    1    2    0    0 -0.28134102426E+01  0.19142546021E+02 -0.19200938521E+02  0.27258751796E+02  0.10566000000E+00 0. -1.
        996    1    1    2    0    0  0.28134102426E+01 -0.19142546021E+02  0.88483516130E+02  0.10345861478E+03  0.50000000000E+02 0.  0.
<mgrwt>
<rscale>  0 0.53612987E+02</rscale>
<asrwt>0</asrwt>
<pdfrwt beam="1">  1       13 0.10000000E+01 0.53612987E+02</pdfrwt>
<pdfrwt beam="2">  1       22 0.30717386E+00 0.53612987E+02</pdfrwt>
<totfact> 0.19856303E-01</totfact>
</mgrwt>
</event>
<event>
 4    1  0.2486873E+000  0.6029851E+02  0.7957747E-01  0.1396583E+00
         13   -1    0    0    0    0  0.00000000000E+00  0.00000000000E+00  0.99999944179E+02  0.99999999999E+02  0.10566000000E+00 0. -1.
         22   -1    0    0    0    0 -0.00000000000E+00 -0.00000000000E+00 -0.25028097386E+02  0.25028097386E+02  0.00000000000E+00 0.  1.
         13    1    1    2    0    0 -0.23142461908E+02  0.24501762590E+02  0.74797456453E+01  0.34523436563E+02  0.10566000000E+00 0.  1.
        996    1    1    2    0    0  0.23142461908E+02 -0.24501762590E+02  0.67492101147E+02  0.90504660822E+02  0.50000000000E+02 0.  0.
<mgrwt>
<rscale>  0 0.60298507E+02</rscale>
<asrwt>0</asrwt>
<pdfrwt beam="1">  1       13 0.10000000E+01 0.60298507E+02</pdfrwt>
<pdfrwt beam="2">  1       22 0.25028118E+00 0.60298507E+02</pdfrwt>
<totfact> 0.29769663E-01</totfact>
</mgrwt>
</event>
<event>
 4    1  0.2486873E+000  0.5162519E+02  0.7957747E-01  0.1436768E+00
         13   -1    0    0    0    0  0.00000000000E+00  0.00000000000E+00  0.99999944183E+02  0.10000000000E+03  0.10566000000E+00 0.  1.
         22   -1    0    0    0    0 -0.00000000000E+00 -0.00000000000E+00 -0.40575852663E+02  0.40575852663E+02  0.00000000000E+00 0. -1.
         13    1    1    2    0    0  0.10017163995E+02  0.80508834023E+01 -0.32610071581E+02  0.35051222954E+02  0.10566000000E+00 0. -1.
        996    1    1    2    0    0 -0.10017163995E+02 -0.80508834023E+01  0.92034163101E+02  0.10552462971E+03  0.50000000000E+02 0.  0.
<mgrwt>
<rscale>  0 0.51625191E+02</rscale>
<asrwt>0</asrwt>
<pdfrwt beam="1">  1       13 0.10000000E+01 0.51625191E+02</pdfrwt>
<pdfrwt beam="2">  1       22 0.40575869E+00 0.51625191E+02</pdfrwt>
<totfact> 0.12030010E-01</totfact>
</mgrwt>
</event>
<event>
 4    1  0.2486873E+000  0.6036477E+02  0.7957747E-01  0.1396307E+00
         13   -1    0    0    0    0  0.00000000000E+00  0.00000000000E+00  0.99999944177E+02  0.99999999997E+02  0.10566000000E+00 0. -1.
         22   -1    0    0    0    0 -0.00000000000E+00 -0.00000000000E+00 -0.64454415324E+02  0.64454415324E+02  0.00000000000E+00 0.  1.
         13    1    1    2    0    0 -0.24893596057E+02  0.22895735134E+02 -0.49629059959E+02  0.60057976726E+02  0.10566000000E+00 0.  1.
        996    1    1    2    0    0  0.24893596057E+02 -0.22895735134E+02  0.85174588812E+02  0.10439643860E+03  0.50000000000E+02 0.  0.
<mgrwt>
<rscale>  0 0.60364773E+02</rscale>
<asrwt>0</asrwt>
<pdfrwt beam="1">  1       13 0.10000000E+01 0.60364773E+02</pdfrwt>
<pdfrwt beam="2">  1       22 0.64454425E+00 0.60364773E+02</pdfrwt>
<totfact> 0.84958975E-02</totfact>
</mgrwt>
</event>
<event>
 4    1  0.2486873E+000  0.5108350E+02  0.7957747E-01  0.1439584E+00
         13   -1    0    0    0    0  0.00000000000E+00  0.00000000000E+00  0.99999944186E+02  0.10000000001E+03  0.10566000000E+00 0. -1.
         22   -1    0    0    0    0 -0.00000000000E+00 -0.00000000000E+00 -0.13299697544E+02  0.13299697544E+02  0.00000000000E+00 0.  1.
         13    1    1    2    0    0 -0.10457301960E+02 -0.41130715466E+00 -0.22680456986E+01  0.10708853028E+02  0.10566000000E+00 0.  1.
        996    1    1    2    0    0  0.10457301960E+02  0.41130715466E+00  0.88968292341E+02  0.10259084452E+03  0.50000000000E+02 0.  0.
<mgrwt>
<rscale>  0 0.51083504E+02</rscale>
<asrwt>0</asrwt>
<pdfrwt beam="1">  1       13 0.10000000E+01 0.51083504E+02</pdfrwt>
<pdfrwt beam="2">  1       22 0.13299722E+00 0.51083504E+02</pdfrwt>
<totfact> 0.91382965E-01</totfact>
</mgrwt>
</event>
<event>
 4    1  0.2486873E+000  0.6888153E+02  0.7957747E-01  0.1363938E+00
         13   -1    0    0    0    0  0.00000000000E+00  0.00000000000E+00  0.99999944172E+02  0.99999999992E+02  0.10566000000E+00 0.  1.
         22   -1    0    0    0    0 -0.00000000000E+00 -0.00000000000E+00 -0.44948039118E+02  0.44948039118E+02  0.00000000000E+00 0. -1.
         13    1    1    2    0    0 -0.18655741746E+02 -0.43550298782E+02 -0.11942475363E+02  0.48859994944E+02  0.10566000000E+00 0. -1.
        996    1    1    2    0    0  0.18655741746E+02  0.43550298782E+02  0.66994380417E+02  0.96088044166E+02  0.50000000000E+02 0.  0.
<mgrwt>
<rscale>  0 0.68881530E+02</rscale>
<asrwt>0</asrwt>
<pdfrwt beam="1">  1       13 0.10000000E+01 0.68881530E+02</pdfrwt>
<pdfrwt beam="2">  1       22 0.44948055E+00 0.68881530E+02</pdfrwt>
<totfact> 0.97726302E-02</totfact>
</mgrwt>
</event>
<event>
 4    1  0.2486873E+000  0.5314191E+02  0.7957747E-01  0.1429096E+00
         13   -1    0    0    0    0  0.00000000000E+00  0.00000000000E+00  0.99999944178E+02  0.99999999998E+02  0.10566000000E+00 0. -1.
         22   -1    0    0    0    0 -0.00000000000E+00 -0.00000000000E+00 -0.43729599239E+02  0.43729599239E+02  0.00000000000E+00 0.  1.
         13    1    1    2    0    0  0.63245285473E+00  0.17990614301E+02 -0.34290121925E+02  0.38728359444E+02  0.10566000000E+00 0.  1.
        996    1    1    2    0    0 -0.63245285473E+00 -0.17990614301E+02  0.90560466864E+02  0.10500123979E+03  0.50000000000E+02 0.  0.
<mgrwt>
<rscale>  0 0.53141906E+02</rscale>
<asrwt>0</asrwt>
<pdfrwt beam="1">  1       13 0.10000000E+01 0.53141906E+02</pdfrwt>
<pdfrwt beam="2">  1       22 0.43729615E+00 0.53141906E+02</pdfrwt>
<totfact> 0.10319285E-01</totfact>
</mgrwt>
</event>
<event>
 4    1  0.2486873E+000  0.5208426E+02  0.7957747E-01  0.1434413E+00
         13   -1    0    0    0    0  0.00000000000E+00  0.00000000000E+00  0.99999944177E+02  0.99999999997E+02  0.10566000000E+00 0.  1.
         22   -1    0    0    0    0 -0.00000000000E+00 -0.00000000000E+00 -0.11952219305E+02  0.11952219305E+02  0.00000000000E+00 0.  1.
         13    1    1    2    0    0 -0.90779986428E+01 -0.11417544127E+02  0.85384806945E+01  0.16902283569E+02  0.10566000000E+00 0. -1.
        996    1    1    2    0    0  0.90779986428E+01  0.11417544127E+02  0.79509244177E+02  0.95049935733E+02  0.50000000000E+02 0.  0.
<mgrwt>
<rscale>  0 0.52084262E+02</rscale>
<asrwt>0</asrwt>
<pdfrwt beam="1">  1       13 0.10000000E+01 0.52084262E+02</pdfrwt>
<pdfrwt beam="2">  1       22 0.11952244E+00 0.52084262E+02</pdfrwt>
<totfact> 0.10817285E+00</totfact>
</mgrwt>
</event>
<event>
 4    1  0.2486873E+000  0.7588707E+02  0.7957747E-01  0.1341146E+00
         13   -1    0    0    0    0  0.00000000000E+00  0.00000000000E+00  0.99999944180E+02  0.10000000000E+03  0.10566000000E+00 0.  1.
         22   -1    0    0    0    0 -0.00000000000E+00 -0.00000000000E+00 -0.45407050628E+02  0.45407050628E+02  0.00000000000E+00 0. -1.
         13    1    1    2    0    0  0.22446502805E+02 -0.52488109683E+02  0.35253531706E+02  0.67094484186E+02  0.10566000000E+00 0. -1.
        996    1    1    2    0    0 -0.22446502805E+02  0.52488109683E+02  0.19339361846E+02  0.78312566443E+02  0.50000000000E+02 0.  0.
<mgrwt>
<rscale>  0 0.75887068E+02</rscale>
<asrwt>0</asrwt>
<pdfrwt beam="1">  1       13 0.10000000E+01 0.75887068E+02</pdfrwt>
<pdfrwt beam="2">  1       22 0.45407066E+00 0.75887068E+02</pdfrwt>
<totfact> 0.95667974E-02</totfact>
</mgrwt>
</event>
<event>
 4    1  0.2486873E+000  0.5305489E+02  0.7957747E-01  0.1429528E+00
         13   -1    0    0    0    0  0.00000000000E+00  0.00000000000E+00  0.99999944170E+02  0.99999999991E+02  0.10566000000E+00 0.  1.
         22   -1    0    0    0    0 -0.00000000000E+00 -0.00000000000E+00 -0.12904977275E+02  0.12904977275E+02  0.00000000000E+00 0.  1.
         13    1    1    2    0    0 -0.11766885020E+02  0.13280140662E+02  0.14088060117E+02  0.22656264497E+02  0.10566000000E+00 0. -1.
        996    1    1    2    0    0  0.11766885020E+02 -0.13280140662E+02  0.73006906778E+02  0.90248712768E+02  0.50000000000E+02 0.  0.
<mgrwt>
<rscale>  0 0.53054893E+02</rscale>
<asrwt>0</asrwt>
<pdfrwt beam="1">  1       13 0.10000000E+01 0.53054893E+02</pdfrwt>
<pdfrwt beam="2">  1       22 0.12905002E+00 0.53054893E+02</pdfrwt>
<totfact> 0.96246443E-01</totfact>
</mgrwt>
</event>
<event>
 4    1  0.2486873E+000  0.5112879E+02  0.7957747E-01  0.1439347E+00
         13   -1    0    0    0    0  0.00000000000E+00  0.00000000000E+00  0.99999944184E+02  0.10000000000E+03  0.10566000000E+00 0. -1.
         22   -1    0    0    0    0 -0.00000000000E+00 -0.00000000000E+00 -0.98499488139E+01  0.98499488139E+01  0.00000000000E+00 0. -1.
         13    1    1    2    0    0 -0.98417482016E+01 -0.41584967029E+01  0.91720340098E+01  0.14081565055E+02  0.10566000000E+00 0.  1.
        996    1    1    2    0    0  0.98417482016E+01  0.41584967029E+01  0.80977961360E+02  0.95768383763E+02  0.50000000000E+02 0.  0.
<mgrwt>
<rscale>  0 0.51128789E+02</rscale>
<asrwt>0</asrwt>
<pdfrwt beam="1">  1       13 0.10000000E+01 0.51128789E+02</pdfrwt>
<pdfrwt beam="2">  1       22 0.98499740E-01 0.51128789E+02</pdfrwt>
<totfact> 0.14378911E+00</totfact>
</mgrwt>
</event>
<event>
 4    1  0.2486873E+000  0.5132702E+02  0.7957747E-01  0.1438313E+00
         13   -1    0    0    0    0  0.00000000000E+00  0.00000000000E+00  0.99999944179E+02  0.99999999999E+02  0.10566000000E+00 0.  1.
         22   -1    0    0    0    0 -0.00000000000E+00 -0.00000000000E+00 -0.14822745532E+02  0.14822745532E+02  0.00000000000E+00 0. -1.
         13    1    1    2    0    0  0.63334659367E+01  0.97134117478E+01 -0.37145624706E+01  0.12176711253E+02  0.10566000000E+00 0. -1.
        996    1    1    2    0    0 -0.63334659367E+01 -0.97134117478E+01  0.88891761117E+02  0.10264603428E+03  0.50000000000E+02 0.  0.
<mgrwt>
<rscale>  0 0.51327022E+02</rscale>
<asrwt>0</asrwt>
<pdfrwt beam="1">  1       13 0.10000000E+01 0.51327022E+02</pdfrwt>
<pdfrwt beam="2">  1       22 0.14822769E+00 0.51327022E+02</pdfrwt>
<totfact> 0.76687207E-01</totfact>
</mgrwt>
</event>
<event>
 4    1  0.2486873E+000  0.5214371E+02  0.7957747E-01  0.1434110E+00
         13   -1    0    0    0    0  0.00000000000E+00  0.00000000000E+00  0.99999944177E+02  0.99999999997E+02  0.10566000000E+00 0. -1.
         22   -1    0    0    0    0 -0.00000000000E+00 -0.00000000000E+00 -0.13468866931E+02  0.13468866931E+02  0.00000000000E+00 0.  1.
         13    1    1    2    0    0  0.14647199700E+02 -0.21037246556E+01  0.31557734722E+01  0.15130637354E+02  0.10566000000E+00 0.  1.
        996    1    1    2    0    0 -0.14647199700E+02  0.21037246556E+01  0.83375303774E+02  0.98338229575E+02  0.50000000000E+02 0.  0.
<mgrwt>
<rscale>  0 0.52143706E+02</rscale>
<asrwt>0</asrwt>
<pdfrwt beam="1">  1       13 0.10000000E+01 0.52143706E+02</pdfrwt>
<pdfrwt beam="2">  1       22 0.13468891E+00 0.52143706E+02</pdfrwt>
<totfact> 0.89767489E-01</totfact>
</mgrwt>
</event>
<event>
 4    1  0.2486873E+000  0.5627527E+02  0.7957747E-01  0.1414163E+00
         13   -1    0    0    0    0  0.00000000000E+00  0.00000000000E+00  0.99999944193E+02  0.10000000001E+03  0.10566000000E+00 0.  1.
         22   -1    0    0    0    0 -0.00000000000E+00 -0.00000000000E+00 -0.19992559801E+02  0.19992559801E+02  0.00000000000E+00 0. -1.
         13    1    1    2    0    0 -0.45126058784E+01 -0.25427190525E+02  0.51364292685E+01  0.26330584868E+02  0.10566000000E+00 0. -1.
        996    1    1    2    0    0  0.45126058784E+01  0.25427190525E+02  0.74870955123E+02  0.93661974947E+02  0.50000000000E+02 0.  0.
<mgrwt>
<rscale>  0 0.56275267E+02</rscale>
<asrwt>0</asrwt>
<pdfrwt beam="1">  1       13 0.10000000E+01 0.56275267E+02</pdfrwt>
<pdfrwt beam="2">  1       22 0.19992582E+00 0.56275267E+02</pdfrwt>
<totfact> 0.45674061E-01</totfact>
</mgrwt>
</event>
<event>
 4    1  0.2486873E+000  0.5326375E+02  0.7957747E-01  0.1428493E+00
         13   -1    0    0    0    0  0.00000000000E+00  0.00000000000E+00  0.99999944183E+02  0.10000000000E+03  0.10566000000E+00 0.  1.
         22   -1    0    0    0    0 -0.00000000000E+00 -0.00000000000E+00 -0.28345507319E+02  0.28345507319E+02  0.00000000000E+00 0. -1.
         13    1    1    2    0    0  0.11315975550E+02 -0.14455985025E+02 -0.16935028531E+02  0.24976652319E+02  0.10566000000E+00 0. -1.
        996    1    1    2    0    0 -0.11315975550E+02  0.14455985025E+02  0.88589465395E+02  0.10336885500E+03  0.50000000000E+02 0.  0.
<mgrwt>
<rscale>  0 0.53263748E+02</rscale>
<asrwt>0</asrwt>
<pdfrwt beam="1">  1       13 0.10000000E+01 0.53263748E+02</pdfrwt>
<pdfrwt beam="2">  1       22 0.28345527E+00 0.53263748E+02</pdfrwt>
<totfact> 0.23098702E-01</totfact>
</mgrwt>
</event>
<event>
 4    1  0.2486873E+000  0.5286534E+02  0.7957747E-01  0.1430472E+00
         13   -1    0    0    0    0  0.00000000000E+00  0.00000000000E+00  0.99999944183E+02  0.10000000000E+03  0.10566000000E+00 0.  1.
         22   -1    0    0    0    0 -0.00000000000E+00 -0.00000000000E+00 -0.13786763602E+02  0.13786763602E+02  0.00000000000E+00 0.  1.
         13    1    1    2    0    0  0.15627173780E+02 -0.71088435073E+01  0.69728604578E+01  0.18530411851E+02  0.10566000000E+00 0. -1.
        996    1    1    2    0    0 -0.15627173780E+02  0.71088435073E+01  0.79240320123E+02  0.95256351755E+02  0.50000000000E+02 0.  0.
<mgrwt>
<rscale>  0 0.52865340E+02</rscale>
<asrwt>0</asrwt>
<pdfrwt beam="1">  1       13 0.10000000E+01 0.52865340E+02</pdfrwt>
<pdfrwt beam="2">  1       22 0.13786788E+00 0.52865340E+02</pdfrwt>
<totfact> 0.86602113E-01</totfact>
</mgrwt>
</event>
<event>
 4    1  0.2486873E+000  0.5435103E+02  0.7957747E-01  0.1423193E+00
         13   -1    0    0    0    0  0.00000000000E+00  0.00000000000E+00  0.99999944175E+02  0.99999999996E+02  0.10566000000E+00 0.  1.
         22   -1    0    0    0    0 -0.00000000000E+00 -0.00000000000E+00 -0.14744080068E+02  0.14744080068E+02  0.00000000000E+00 0. -1.
         13    1    1    2    0    0  0.20806817128E+02  0.45946510928E+01  0.15680303870E+02  0.26455954929E+02  0.10566000000E+00 0. -1.
        996    1    1    2    0    0 -0.20806817128E+02 -0.45946510928E+01  0.69575560237E+02  0.88288125135E+02  0.50000000000E+02 0.  0.
<mgrwt>
<rscale>  0 0.54351030E+02</rscale>
<asrwt>0</asrwt>
<pdfrwt beam="1">  1       13 0.10000000E+01 0.54351030E+02</pdfrwt>
<pdfrwt beam="2">  1       22 0.14744104E+00 0.54351030E+02</pdfrwt>
<totfact> 0.77840284E-01</totfact>
</mgrwt>
</event>
<event>
 4    1  0.2486873E+000  0.5153537E+02  0.7957747E-01  0.1437232E+00
         13   -1    0    0    0    0  0.00000000000E+00  0.00000000000E+00  0.99999944177E+02  0.99999999998E+02  0.10566000000E+00 0. -1.
         22   -1    0    0    0    0 -0.00000000000E+00 -0.00000000000E+00 -0.25724820089E+02  0.25724820089E+02  0.00000000000E+00 0.  1.
         13    1    1    2    0    0 -0.68225795875E+01  0.10456905673E+02 -0.16888367459E+02  0.21002918558E+02  0.10566000000E+00 0.  1.
        996    1    1    2    0    0  0.68225795875E+01 -0.10456905673E+02  0.91163491548E+02  0.10472190153E+03  0.50000000000E+02 0.  0.
<mgrwt>
<rscale>  0 0.51535371E+02</rscale>
<asrwt>0</asrwt>
<pdfrwt beam="1">  1       13 0.10000000E+01 0.51535371E+02</pdfrwt>
<pdfrwt beam="2">  1       22 0.25724841E+00 0.51535371E+02</pdfrwt>
<totfact> 0.27847139E-01</totfact>
</mgrwt>
</event>
<event>
 4    1  0.2486873E+000  0.5415582E+02  0.7957747E-01  0.1424134E+00
         13   -1    0    0    0    0  0.00000000000E+00  0.00000000000E+00  0.99999944174E+02  0.99999999994E+02  0.10566000000E+00 0. -1.
         22   -1    0    0    0    0 -0.00000000000E+00 -0.00000000000E+00 -0.56111809849E+02  0.56111809849E+02  0.00000000000E+00 0.  1.
         13    1    1    2    0    0 -0.17200227663E+02 -0.11704931758E+02 -0.46386682830E+02  0.50838850962E+02  0.10566000000E+00 0.  1.
        996    1    1    2    0    0  0.17200227663E+02  0.11704931758E+02  0.90274817155E+02  0.10527295888E+03  0.50000000000E+02 0.  0.
<mgrwt>
<rscale>  0 0.54155824E+02</rscale>
<asrwt>0</asrwt>
<pdfrwt beam="1">  1       13 0.10000000E+01 0.54155824E+02</pdfrwt>
<pdfrwt beam="2">  1       22 0.56111822E+00 0.54155824E+02</pdfrwt>
<totfact> 0.58394559E-02</totfact>
</mgrwt>
</event>
<event>
 4    1  0.2486873E+000  0.5240391E+02  0.7957747E-01  0.1432791E+00
         13   -1    0    0    0    0  0.00000000000E+00  0.00000000000E+00  0.99999944177E+02  0.99999999998E+02  0.10566000000E+00 0. -1.
         22   -1    0    0    0    0 -0.00000000000E+00 -0.00000000000E+00 -0.12391161674E+02  0.12391161674E+02  0.00000000000E+00 0. -1.
         13    1    1    2    0    0  0.86338468705E+01  0.13100625051E+02  0.95326771757E+01  0.18358997432E+02  0.10566000000E+00 0.  1.
        996    1    1    2    0    0 -0.86338468705E+01 -0.13100625051E+02  0.78076105328E+02  0.94032164240E+02  0.50000000000E+02 0.  0.
<mgrwt>
<rscale>  0 0.52403909E+02</rscale>
<asrwt>0</asrwt>
<pdfrwt beam="1">  1       13 0.10000000E+01 0.52403909E+02</pdfrwt>
<pdfrwt beam="2">  1       22 0.12391186E+00 0.52403909E+02</pdfrwt>
<totfact> 0.10240290E+00</totfact>
</mgrwt>
</event>
<event>
 4    1  0.2486873E+000  0.5198344E+02  0.7957747E-01  0.1434928E+00
         13   -1    0    0    0    0  0.00000000000E+00  0.00000000000E+00  0.99999944179E+02  0.99999999999E+02  0.10566000000E+00 0.  1.
         22   -1    0    0    0    0 -0.00000000000E+00 -0.00000000000E+00 -0.11055878038E+02  0.11055878038E+02  0.00000000000E+00 0.  1.
         13    1    1    2    0    0  0.25917837964E+01  0.13984305724E+02  0.23628962566E+02  0.27579289074E+02  0.10566000000E+00 0. -1.
        996    1    1    2    0    0 -0.25917837964E+01 -0.13984305724E+02  0.65315103575E+02  0.83476588963E+02  0.50000000000E+02 0.  0.
<mgrwt>
<rscale>  0 0.51983441E+02</rscale>
<asrwt>0</asrwt>
<pdfrwt beam="1">  1       13 0.10000000E+01 0.51983441E+02</pdfrwt>
<pdfrwt beam="2">  1       22 0.11055903E+00 0.51983441E+02</pdfrwt>
<totfact> 0.12164645E+00</totfact>
</mgrwt>
</event>
<event>
 4    1  0.2486873E+000  0.5290946E+02  0.7957747E-01  0.1430252E+00
         13   -1    0    0    0    0  0.00000000000E+00  0.00000000000E+00  0.99999944180E+02  0.10000000000E+03  0.10566000000E+00 0. -1.
         22   -1    0    0    0    0 -0.00000000000E+00 -0.00000000000E+00 -0.33004898640E+02  0.33004898640E+02  0.00000000000E+00 0.  1.
         13    1    1    2    0    0 -0.88451155929E+01 -0.14871964152E+02 -0.22895561241E+02  0.28698942074E+02  0.10566000000E+00 0.  1.
        996    1    1    2    0    0  0.88451155929E+01  0.14871964152E+02  0.89890606781E+02  0.10430595657E+03  0.50000000000E+02 0.  0.
<mgrwt>
<rscale>  0 0.52909464E+02</rscale>
<asrwt>0</asrwt>
<pdfrwt beam="1">  1       13 0.10000000E+01 0.52909464E+02</pdfrwt>
<pdfrwt beam="2">  1       22 0.33004917E+00 0.52909464E+02</pdfrwt>
<totfact> 0.17432294E-01</totfact>
</mgrwt>
</event>
<event>
 4    1  0.2486873E+000  0.5226282E+02  0.7957747E-01  0.1433505E+00
         13   -1    0    0    0    0  0.00000000000E+00  0.00000000000E+00  0.99999944178E+02  0.99999999998E+02  0.10566000000E+00 0.  1.
         22   -1    0    0    0    0 -0.00000000000E+00 -0.00000000000E+00 -0.11384365443E+02  0.11384365443E+02  0.00000000000E+00 0.  1.
         13    1    1    2    0    0  0.29257709855E+01  0.14927887437E+02  0.19340042513E+02  0.24605901074E+02  0.10566000000E+00 0. -1.
        996    1    1    2    0    0 -0.29257709855E+01 -0.14927887437E+02  0.69275536222E+02  0.86778464368E+02  0.50000000000E+02 0.  0.
<mgrwt>
<rscale>  0 0.52262816E+02</rscale>
<asrwt>0</asrwt>
<pdfrwt beam="1">  1       13 0.10000000E+01 0.52262816E+02</pdfrwt>
<pdfrwt beam="2">  1       22 0.11384390E+00 0.52262816E+02</pdfrwt>
<totfact> 0.11650429E+00</totfact>
</mgrwt>
</event>
<event>
 4    1  0.2486873E+000  0.5448245E+02  0.7957747E-01  0.1422562E+00
         13   -1    0    0    0    0  0.00000000000E+00  0.00000000000E+00  0.99999944180E+02  0.10000000000E+03  0.10566000000E+00 0. -1.
         22   -1    0    0    0    0 -0.00000000000E+00 -0.00000000000E+00 -0.14487070956E+02  0.14487070956E+02  0.00000000000E+00 0. -1.
         13    1    1    2    0    0 -0.19641439339E+02 -0.90857795976E+01  0.24277196705E+02  0.32522776236E+02  0.10566000000E+00 0.  1.
        996    1    1    2    0    0  0.19641439339E+02  0.90857795976E+01  0.61235676520E+02  0.81964294720E+02  0.50000000000E+02 0.  0.
<mgrwt>
<rscale>  0 0.54482452E+02</rscale>
<asrwt>0</asrwt>
<pdfrwt beam="1">  1       13 0.10000000E+01 0.54482452E+02</pdfrwt>
<pdfrwt beam="2">  1       22 0.14487095E+00 0.54482452E+02</pdfrwt>
<totfact> 0.80152635E-01</totfact>
</mgrwt>
</event>
<event>
 4    1  0.2486873E+000  0.5344176E+02  0.7957747E-01  0.1427615E+00
         13   -1    0    0    0    0  0.00000000000E+00  0.00000000000E+00  0.99999944171E+02  0.99999999991E+02  0.10566000000E+00 0. -1.
         22   -1    0    0    0    0 -0.00000000000E+00 -0.00000000000E+00 -0.21740844642E+02  0.21740844642E+02  0.00000000000E+00 0.  1.
         13    1    1    2    0    0 -0.11922075707E+02  0.14624851201E+02 -0.78169627656E+01  0.20423962219E+02  0.10566000000E+00 0.  1.
        996    1    1    2    0    0  0.11922075707E+02 -0.14624851201E+02  0.86076062295E+02  0.10131688241E+03  0.50000000000E+02 0.  0.
<mgrwt>
<rscale>  0 0.53441764E+02</rscale>
<asrwt>0</asrwt>
<pdfrwt beam="1">  1       13 0.10000000E+01 0.53441764E+02</pdfrwt>
<pdfrwt beam="2">  1       22 0.21740866E+00 0.53441764E+02</pdfrwt>
<totfact> 0.38785647E-01</totfact>
</mgrwt>
</event>
<event>
 4    1  0.2486873E+000  0.5116555E+02  0.7957747E-01  0.1439154E+00
         13   -1    0    0    0    0  0.00000000000E+00  0.00000000000E+00  0.99999944177E+02  0.99999999997E+02  0.10566000000E+00 0. -1.
         22   -1    0    0    0    0 -0.00000000000E+00 -0.00000000000E+00 -0.18549577676E+02  0.18549577676E+02  0.00000000000E+00 0.  1.
         13    1    1    2    0    0  0.95938786144E+01 -0.50863775846E+01 -0.93472005467E+01  0.14328121506E+02  0.10566000000E+00 0.  1.
        996    1    1    2    0    0 -0.95938786144E+01  0.50863775846E+01  0.90797567048E+02  0.10422145617E+03  0.50000000000E+02 0.  0.
<mgrwt>
<rscale>  0 0.51165552E+02</rscale>
<asrwt>0</asrwt>
<pdfrwt beam="1">  1       13 0.10000000E+01 0.51165552E+02</pdfrwt>
<pdfrwt beam="2">  1       22 0.18549600E+00 0.51165552E+02</pdfrwt>
<totfact> 0.51958259E-01</totfact>
</mgrwt>
</event>
<event>
 4    1  0.2486873E+000  0.5868989E+02  0.7957747E-01  0.1403413E+00
         13   -1    0    0    0    0  0.00000000000E+00  0.00000000000E+00  0.99999944171E+02  0.99999999991E+02  0.10566000000E+00 0. -1.
         22   -1    0    0    0    0 -0.00000000000E+00 -0.00000000000E+00 -0.23797297829E+02  0.23797297829E+02  0.00000000000E+00 0.  1.
         13    1    1    2    0    0  0.17486936551E+02 -0.25272726027E+02  0.43777021938E+01  0.31043180754E+02  0.10566000000E+00 0.  1.
        996    1    1    2    0    0 -0.17486936551E+02  0.25272726027E+02  0.71824944149E+02  0.92754117066E+02  0.50000000000E+02 0.  0.
<mgrwt>
<rscale>  0 0.58689894E+02</rscale>
<asrwt>0</asrwt>
<pdfrwt beam="1">  1       13 0.10000000E+01 0.58689894E+02</pdfrwt>
<pdfrwt beam="2">  1       22 0.23797319E+00 0.58689894E+02</pdfrwt>
<totfact> 0.32806632E-01</totfact>
</mgrwt>
</event>
<event>
 4    1  0.2486873E+000  0.5389959E+02  0.7957747E-01  0.1425376E+00
         13   -1    0    0    0    0  0.00000000000E+00  0.00000000000E+00  0.99999944176E+02  0.99999999996E+02  0.10566000000E+00 0.  1.
         22   -1    0    0    0    0 -0.00000000000E+00 -0.00000000000E+00 -0.18805908663E+02  0.18805908663E+02  0.00000000000E+00 0.  1.
         13    1    1    2    0    0  0.14392542642E+02  0.14071983743E+02 -0.14033236293E+01  0.20177871330E+02  0.10566000000E+00 0. -1.
        996    1    1    2    0    0 -0.14392542642E+02 -0.14071983743E+02  0.82597359142E+02  0.98628037329E+02  0.50000000000E+02 0.  0.
<mgrwt>
<rscale>  0 0.53899592E+02</rscale>
<asrwt>0</asrwt>
<pdfrwt beam="1">  1       13 0.10000000E+01 0.53899592E+02</pdfrwt>
<pdfrwt beam="2">  1       22 0.18805931E+00 0.53899592E+02</pdfrwt>
<totfact> 0.50932102E-01</totfact>
</mgrwt>
</event>
<event>
 4    1  0.2486873E+000  0.5926421E+02  0.7957747E-01  0.1400946E+00
         13   -1    0    0    0    0  0.00000000000E+00  0.00000000000E+00  0.99999944186E+02  0.10000000001E+03  0.10566000000E+00 0. -1.
         22   -1    0    0    0    0 -0.00000000000E+00 -0.00000000000E+00 -0.65401909710E+02  0.65401909710E+02  0.00000000000E+00 0.  1.
         13    1    1    2    0    0 -0.87263062661E+01 -0.30595726640E+02 -0.51705007258E+02  0.60709684971E+02  0.10566000000E+00 0.  1.
        996    1    1    2    0    0  0.87263062661E+01  0.30595726640E+02  0.86303041734E+02  0.10469222475E+03  0.50000000000E+02 0.  0.
<mgrwt>
<rscale>  0 0.59264213E+02</rscale>
<asrwt>0</asrwt>
<pdfrwt beam="1">  1       13 0.10000000E+01 0.59264213E+02</pdfrwt>
<pdfrwt beam="2">  1       22 0.65401919E+00 0.59264213E+02</pdfrwt>
<totfact> 0.86990407E-02</totfact>
</mgrwt>
</event>
<event>
 4    1  0.2486873E+000  0.5200506E+02  0.7957747E-01  0.1434817E+00
         13   -1    0    0    0    0  0.00000000000E+00  0.00000000000E+00  0.99999944179E+02  0.99999999999E+02  0.10566000000E+00 0.  1.
         22   -1    0    0    0    0 -0.00000000000E+00 -0.00000000000E+00 -0.11547050032E+02  0.11547050032E+02  0.00000000000E+00 0.  1.
         13    1    1    2    0    0 -0.15755981350E+01 -0.14214207670E+02  0.10109388791E+02  0.17513912039E+02  0.10566000000E+00 0. -1.
        996    1    1    2    0    0  0.15755981350E+01  0.14214207670E+02  0.78343505357E+02  0.94033137992E+02  0.50000000000E+02 0.  0.
<mgrwt>
<rscale>  0 0.52005059E+02</rscale>
<asrwt>0</asrwt>
<pdfrwt beam="1">  1       13 0.10000000E+01 0.52005059E+02</pdfrwt>
<pdfrwt beam="2">  1       22 0.11547075E+00 0.52005059E+02</pdfrwt>
<totfact> 0.11397261E+00</totfact>
</mgrwt>
</event>
<event>
 4    1  0.2486873E+000  0.5246439E+02  0.7957747E-01  0.1432485E+00
         13   -1    0    0    0    0  0.00000000000E+00  0.00000000000E+00  0.99999944183E+02  0.10000000000E+03  0.10566000000E+00 0.  1.
         22   -1    0    0    0    0 -0.00000000000E+00 -0.00000000000E+00 -0.38882398771E+02  0.38882398771E+02  0.00000000000E+00 0. -1.
         13    1    1    2    0    0 -0.10250148817E+02 -0.12142782511E+02 -0.29880657139E+02  0.33843427028E+02  0.10566000000E+00 0. -1.
        996    1    1    2    0    0  0.10250148817E+02  0.12142782511E+02  0.90998202551E+02  0.10503897175E+03  0.50000000000E+02 0.  0.
<mgrwt>
<rscale>  0 0.52464395E+02</rscale>
<asrwt>0</asrwt>
<pdfrwt beam="1">  1       13 0.10000000E+01 0.52464395E+02</pdfrwt>
<pdfrwt beam="2">  1       22 0.38882416E+00 0.52464395E+02</pdfrwt>
<totfact> 0.13044249E-01</totfact>
</mgrwt>
</event>
<event>
 4    1  0.2486873E+000  0.5169272E+02  0.7957747E-01  0.1436420E+00
         13   -1    0    0    0    0  0.00000000000E+00  0.00000000000E+00  0.99999944179E+02  0.99999999999E+02  0.10566000000E+00 0.  1.
         22   -1    0    0    0    0 -0.00000000000E+00 -0.00000000000E+00 -0.10588165894E+02  0.10588165894E+02  0.00000000000E+00 0.  1.
         13    1    1    2    0    0 -0.32303297217E+01  0.12716215167E+02  0.14296389629E+02  0.19404511814E+02  0.10566000000E+00 0. -1.
        996    1    1    2    0    0  0.32303297217E+01 -0.12716215167E+02  0.75115388655E+02  0.91183654079E+02  0.50000000000E+02 0.  0.
<mgrwt>
<rscale>  0 0.51692719E+02</rscale>
<asrwt>0</asrwt>
<pdfrwt beam="1">  1       13 0.10000000E+01 0.51692719E+02</pdfrwt>
<pdfrwt beam="2">  1       22 0.10588191E+00 0.51692719E+02</pdfrwt>
<totfact> 0.12959860E+00</totfact>
</mgrwt>
</event>
<event>
 4    1  0.2486873E+000  0.5281003E+02  0.7957747E-01  0.1430749E+00
         13   -1    0    0    0    0  0.00000000000E+00  0.00000000000E+00  0.99999944179E+02  0.99999999999E+02  0.10566000000E+00 0.  1.
         22   -1    0    0    0    0 -0.00000000000E+00 -0.00000000000E+00 -0.14051229471E+02  0.14051229471E+02  0.00000000000E+00 0.  1.
         13    1    1    2    0    0  0.72610262106E+01 -0.15368060441E+02  0.55901546153E+01  0.17893037081E+02  0.10566000000E+00 0. -1.
        996    1    1    2    0    0 -0.72610262106E+01  0.15368060441E+02  0.80358560092E+02  0.96158192389E+02  0.50000000000E+02 0.  0.
<mgrwt>
<rscale>  0 0.52810035E+02</rscale>
<asrwt>0</asrwt>
<pdfrwt beam="1">  1       13 0.10000000E+01 0.52810035E+02</pdfrwt>
<pdfrwt beam="2">  1       22 0.14051253E+00 0.52810035E+02</pdfrwt>
<totfact> 0.83971031E-01</totfact>
</mgrwt>
</event>
<event>
 4    1  0.2486873E+000  0.5687843E+02  0.7957747E-01  0.1411419E+00
         13   -1    0    0    0    0  0.00000000000E+00  0.00000000000E+00  0.99999944174E+02  0.99999999994E+02  0.10566000000E+00 0. -1.
         22   -1    0    0    0    0 -0.00000000000E+00 -0.00000000000E+00 -0.30039361459E+02  0.30039361459E+02  0.00000000000E+00 0.  1.
         13    1    1    2    0    0 -0.19982752663E+02 -0.18326088807E+02 -0.12506752584E+02  0.29859436686E+02  0.10566000000E+00 0.  1.
        996    1    1    2    0    0  0.19982752663E+02  0.18326088807E+02  0.82467335299E+02  0.10017992477E+03  0.50000000000E+02 0.  0.
<mgrwt>
<rscale>  0 0.56878431E+02</rscale>
<asrwt>0</asrwt>
<pdfrwt beam="1">  1       13 0.10000000E+01 0.56878431E+02</pdfrwt>
<pdfrwt beam="2">  1       22 0.30039381E+00 0.56878431E+02</pdfrwt>
<totfact> 0.20779231E-01</totfact>
</mgrwt>
</event>
<event>
 4    1  0.2486873E+000  0.5111542E+02  0.7957747E-01  0.1439416E+00
         13   -1    0    0    0    0  0.00000000000E+00  0.00000000000E+00  0.99999944182E+02  0.10000000000E+03  0.10566000000E+00 0.  1.
         22   -1    0    0    0    0 -0.00000000000E+00 -0.00000000000E+00 -0.99950697812E+01  0.99950697812E+01  0.00000000000E+00 0.  1.
         13    1    1    2    0    0 -0.21954006781E+01  0.10390705605E+02  0.25989852586E+02  0.28076149105E+02  0.10566000000E+00 0. -1.
        996    1    1    2    0    0  0.21954006781E+01 -0.10390705605E+02  0.64015021815E+02  0.81918920678E+02  0.50000000000E+02 0.  0.
<mgrwt>
<rscale>  0 0.51115424E+02</rscale>
<asrwt>0</asrwt>
<pdfrwt beam="1">  1       13 0.10000000E+01 0.51115424E+02</pdfrwt>
<pdfrwt beam="2">  1       22 0.99950949E-01 0.51115424E+02</pdfrwt>
<totfact> 0.14077754E+00</totfact>
</mgrwt>
</event>
<event>
 4    1  0.2486873E+000  0.5425755E+02  0.7957747E-01  0.1423643E+00
         13   -1    0    0    0    0  0.00000000000E+00  0.00000000000E+00  0.99999944175E+02  0.99999999995E+02  0.10566000000E+00 0.  1.
         22   -1    0    0    0    0 -0.00000000000E+00 -0.00000000000E+00 -0.15084234571E+02  0.15084234571E+02  0.00000000000E+00 0.  1.
         13    1    1    2    0    0 -0.19841344715E+02 -0.70853901425E+01  0.37567692249E+02  0.43072315685E+02  0.10566000000E+00 0. -1.
        996    1    1    2    0    0  0.19841344715E+02  0.70853901425E+01  0.47348017355E+02  0.72011918882E+02  0.50000000000E+02 0.  0.
<mgrwt>
<rscale>  0 0.54257550E+02</rscale>
<asrwt>0</asrwt>
<pdfrwt beam="1">  1       13 0.10000000E+01 0.54257550E+02</pdfrwt>
<pdfrwt beam="2">  1       22 0.15084258E+00 0.54257550E+02</pdfrwt>
<totfact> 0.74929133E-01</totfact>
</mgrwt>
</event>
<event>
 4    1  0.2486873E+000  0.5190408E+02  0.7957747E-01  0.1435334E+00
         13   -1    0    0    0    0  0.00000000000E+00  0.00000000000E+00  0.99999944179E+02  0.10000000000E+03  0.10566000000E+00 0. -1.
         22   -1    0    0    0    0 -0.00000000000E+00 -0.00000000000E+00 -0.10842394539E+02  0.10842394539E+02  0.00000000000E+00 0. -1.
         13    1    1    2    0    0 -0.13822543641E+02 -0.17235058168E+01  0.20041571300E+02  0.24407149142E+02  0.10566000000E+00 0.  1.
        996    1    1    2    0    0  0.13822543641E+02  0.17235058168E+01  0.69115978340E+02  0.86435245397E+02  0.50000000000E+02 0.  0.
<mgrwt>
<rscale>  0 0.51904077E+02</rscale>
<asrwt>0</asrwt>
<pdfrwt beam="1">  1       13 0.10000000E+01 0.51904077E+02</pdfrwt>
<pdfrwt beam="2">  1       22 0.10842419E+00 0.51904077E+02</pdfrwt>
<totfact> 0.12519930E+00</totfact>
</mgrwt>
</event>
<event>
 4    1  0.2486873E+000  0.6691467E+02  0.7957747E-01  0.1370911E+00
         13   -1    0    0    0    0  0.00000000000E+00  0.00000000000E+00  0.99999944180E+02  0.10000000000E+03  0.10566000000E+00 0.  1.
         22   -1    0    0    0    0 -0.00000000000E+00 -0.00000000000E+00 -0.71006588610E+02  0.71006588610E+02  0.00000000000E+00 0. -1.
         13    1    1    2    0    0  0.11608188689E+02  0.42928115713E+02 -0.50374519547E+02  0.67195063412E+02  0.10566000000E+00 0. -1.
        996    1    1    2    0    0 -0.11608188689E+02 -0.42928115713E+02  0.79367875117E+02  0.10381152520E+03  0.50000000000E+02 0.  0.
<mgrwt>
<rscale>  0 0.66914671E+02</rscale>
<asrwt>0</asrwt>
<pdfrwt beam="1">  1       13 0.10000000E+01 0.66914671E+02</pdfrwt>
<pdfrwt beam="2">  1       22 0.71006597E+00 0.66914671E+02</pdfrwt>
<totfact> 0.69358703E-02</totfact>
</mgrwt>
</event>
<event>
 4    1  0.2486873E+000  0.5165757E+02  0.7957747E-01  0.1436601E+00
         13   -1    0    0    0    0  0.00000000000E+00  0.00000000000E+00  0.99999944184E+02  0.10000000000E+03  0.10566000000E+00 0.  1.
         22   -1    0    0    0    0 -0.00000000000E+00 -0.00000000000E+00 -0.11121129469E+02  0.11121129469E+02  0.00000000000E+00 0.  1.
         13    1    1    2    0    0 -0.12962333458E+02  0.69455835581E+00  0.83076164207E+01  0.15412078205E+02  0.10566000000E+00 0. -1.
        996    1    1    2    0    0  0.12962333458E+02 -0.69455835581E+00  0.80571198295E+02  0.95709051268E+02  0.50000000000E+02 0.  0.
<mgrwt>
<rscale>  0 0.51657570E+02</rscale>
<asrwt>0</asrwt>
<pdfrwt beam="1">  1       13 0.10000000E+01 0.51657570E+02</pdfrwt>
<pdfrwt beam="2">  1       22 0.11121154E+00 0.51657570E+02</pdfrwt>
<totfact> 0.12049269E+00</totfact>
</mgrwt>
</event>
<event>
 4    1  0.2486873E+000  0.5137195E+02  0.7957747E-01  0.1438079E+00
         13   -1    0    0    0    0  0.00000000000E+00  0.00000000000E+00  0.99999944177E+02  0.99999999998E+02  0.10566000000E+00 0. -1.
         22   -1    0    0    0    0 -0.00000000000E+00 -0.00000000000E+00 -0.11466899117E+02  0.11466899117E+02  0.00000000000E+00 0. -1.
         13    1    1    2    0    0 -0.11770312541E+02  0.73299932928E+00  0.38245847388E+01  0.12398232043E+02  0.10566000000E+00 0.  1.
        996    1    1    2    0    0  0.11770312541E+02 -0.73299932928E+00  0.84708460322E+02  0.99068667072E+02  0.50000000000E+02 0.  0.
<mgrwt>
<rscale>  0 0.51371953E+02</rscale>
<asrwt>0</asrwt>
<pdfrwt beam="1">  1       13 0.10000000E+01 0.51371953E+02</pdfrwt>
<pdfrwt beam="2">  1       22 0.11466924E+00 0.51371953E+02</pdfrwt>
<totfact> 0.11500993E+00</totfact>
</mgrwt>
</event>
<event>
 4    1  0.2486873E+000  0.5327502E+02  0.7957747E-01  0.1428437E+00
         13   -1    0    0    0    0  0.00000000000E+00  0.00000000000E+00  0.99999944178E+02  0.99999999998E+02  0.10566000000E+00 0.  1.
         22   -1    0    0    0    0 -0.00000000000E+00 -0.00000000000E+00 -0.15066175430E+02  0.15066175430E+02  0.00000000000E+00 0.  1.
         13    1    1    2    0    0 -0.13909271801E+02  0.12031609160E+02  0.50938138840E+01  0.19083646531E+02  0.10566000000E+00 0. -1.
        996    1    1    2    0    0  0.13909271801E+02 -0.12031609160E+02  0.79839954864E+02  0.95982528898E+02  0.50000000000E+02 0.  0.
<mgrwt>
<rscale>  0 0.53275017E+02</rscale>
<asrwt>0</asrwt>
<pdfrwt beam="1">  1       13 0.10000000E+01 0.53275017E+02</pdfrwt>
<pdfrwt beam="2">  1       22 0.15066199E+00 0.53275017E+02</pdfrwt>
<totfact> 0.74934252E-01</totfact>
</mgrwt>
</event>
<event>
 4    1  0.2486873E+000  0.5263782E+02  0.7957747E-01  0.1431612E+00
         13   -1    0    0    0    0  0.00000000000E+00  0.00000000000E+00  0.99999944181E+02  0.10000000000E+03  0.10566000000E+00 0. -1.
         22   -1    0    0    0    0 -0.00000000000E+00 -0.00000000000E+00 -0.11935953788E+02  0.11935953788E+02  0.00000000000E+00 0. -1.
         13    1    1    2    0    0  0.27024520187E+00  0.16451966322E+02  0.20424131167E+02  0.26227781574E+02  0.10566000000E+00 0.  1.
        996    1    1    2    0    0 -0.27024520187E+00 -0.16451966322E+02  0.67639859226E+02  0.85708172215E+02  0.50000000000E+02 0.  0.
<mgrwt>
<rscale>  0 0.52637821E+02</rscale>
<asrwt>0</asrwt>
<pdfrwt beam="1">  1       13 0.10000000E+01 0.52637821E+02</pdfrwt>
<pdfrwt beam="2">  1       22 0.11935978E+00 0.52637821E+02</pdfrwt>
<totfact> 0.10853189E+00</totfact>
</mgrwt>
</event>
<event>
 4    1  0.2486873E+000  0.5714187E+02  0.7957747E-01  0.1410233E+00
         13   -1    0    0    0    0  0.00000000000E+00  0.00000000000E+00  0.99999944179E+02  0.10000000000E+03  0.10566000000E+00 0.  1.
         22   -1    0    0    0    0 -0.00000000000E+00 -0.00000000000E+00 -0.22528834417E+02  0.22528834417E+02  0.00000000000E+00 0. -1.
         13    1    1    2    0    0 -0.18705192031E+02  0.20379146678E+02  0.18198279767E+01  0.27722134949E+02  0.10566000000E+00 0. -1.
        996    1    1    2    0    0  0.18705192031E+02 -0.20379146678E+02  0.75651281786E+02  0.94806699468E+02  0.50000000000E+02 0.  0.
<mgrwt>
<rscale>  0 0.57141875E+02</rscale>
<asrwt>0</asrwt>
<pdfrwt beam="1">  1       13 0.10000000E+01 0.57141875E+02</pdfrwt>
<pdfrwt beam="2">  1       22 0.22528856E+00 0.57141875E+02</pdfrwt>
<totfact> 0.36425648E-01</totfact>
</mgrwt>
</event>
<event>
 4    1  0.2486873E+000  0.5174084E+02  0.7957747E-01  0.1436172E+00
         13   -1    0    0    0    0  0.00000000000E+00  0.00000000000E+00  0.99999944176E+02  0.99999999996E+02  0.10566000000E+00 0. -1.
         22   -1    0    0    0    0 -0.00000000000E+00 -0.00000000000E+00 -0.60120814105E+02  0.60120814105E+02  0.00000000000E+00 0.  1.
         13    1    1    2    0    0  0.90353858261E+01  0.97712095679E+01 -0.52542385139E+02  0.54201735522E+02  0.10566000000E+00 0.  1.
        996    1    1    2    0    0 -0.90353858261E+01 -0.97712095679E+01  0.92421515209E+02  0.10591907858E+03  0.50000000000E+02 0.  0.
<mgrwt>
<rscale>  0 0.51740842E+02</rscale>
<asrwt>0</asrwt>
<pdfrwt beam="1">  1       13 0.10000000E+01 0.51740842E+02</pdfrwt>
<pdfrwt beam="2">  1       22 0.60120825E+00 0.51740842E+02</pdfrwt>
<totfact> 0.64007122E-02</totfact>
</mgrwt>
</event>
<event>
 4    1  0.2486873E+000  0.5134894E+02  0.7957747E-01  0.1438199E+00
         13   -1    0    0    0    0  0.00000000000E+00  0.00000000000E+00  0.99999944179E+02  0.99999999999E+02  0.10566000000E+00 0. -1.
         22   -1    0    0    0    0 -0.00000000000E+00 -0.00000000000E+00 -0.11533778899E+02  0.11533778899E+02  0.00000000000E+00 0. -1.
         13    1    1    2    0    0  0.61557483679E+01 -0.99408244859E+01  0.34108024758E+01  0.12180228528E+02  0.10566000000E+00 0.  1.
        996    1    1    2    0    0 -0.61557483679E+01  0.99408244859E+01  0.85055362804E+02  0.99353550370E+02  0.50000000000E+02 0.  0.
<mgrwt>
<rscale>  0 0.51348936E+02</rscale>
<asrwt>0</asrwt>
<pdfrwt beam="1">  1       13 0.10000000E+01 0.51348936E+02</pdfrwt>
<pdfrwt beam="2">  1       22 0.11533804E+00 0.51348936E+02</pdfrwt>
<totfact> 0.11399974E+00</totfact>
</mgrwt>
</event>
<event>
 4    1  0.2486873E+000  0.5153559E+02  0.7957747E-01  0.1437231E+00
         13   -1    0    0    0    0  0.00000000000E+00  0.00000000000E+00  0.99999944175E+02  0.99999999995E+02  0.10566000000E+00 0. -1.
         22   -1    0    0    0    0 -0.00000000000E+00 -0.00000000000E+00 -0.27942961035E+02  0.27942961035E+02  0.00000000000E+00 0.  1.
         13    1    1    2    0    0 -0.10153564743E+02 -0.72678967899E+01 -0.19338060231E+02  0.23019316633E+02  0.10566000000E+00 0.  1.
        996    1    1    2    0    0  0.10153564743E+02  0.72678967899E+01  0.91395043371E+02  0.10492364440E+03  0.50000000000E+02 0.  0.
<mgrwt>
<rscale>  0 0.51535592E+02</rscale>
<asrwt>0</asrwt>
<pdfrwt beam="1">  1       13 0.10000000E+01 0.51535592E+02</pdfrwt>
<pdfrwt beam="2">  1       22 0.27942981E+00 0.51535592E+02</pdfrwt>
<totfact> 0.23688437E-01</totfact>
</mgrwt>
</event>
<event>
 4    1  0.2486873E+000  0.7055547E+02  0.7957747E-01  0.1358214E+00
         13   -1    0    0    0    0  0.00000000000E+00  0.00000000000E+00  0.99999944177E+02  0.99999999998E+02  0.10566000000E+00 0. -1.
         22   -1    0    0    0    0 -0.00000000000E+00 -0.00000000000E+00 -0.65060057569E+02  0.65060057569E+02  0.00000000000E+00 0.  1.
         13    1    1    2    0    0  0.37796464217E+01  0.49636568176E+02 -0.38716067028E+02  0.63063615798E+02  0.10566000000E+00 0.  1.
        996    1    1    2    0    0 -0.37796464217E+01 -0.49636568176E+02  0.73655953636E+02  0.10199644177E+03  0.50000000000E+02 0.  0.
<mgrwt>
<rscale>  0 0.70555472E+02</rscale>
<asrwt>0</asrwt>
<pdfrwt beam="1">  1       13 0.10000000E+01 0.70555472E+02</pdfrwt>
<pdfrwt beam="2">  1       22 0.65060067E+00 0.70555472E+02</pdfrwt>
<totfact> 0.86523140E-02</totfact>
</mgrwt>
</event>
<event>
 4    1  0.2486873E+000  0.5165111E+02  0.7957747E-01  0.1436634E+00
         13   -1    0    0    0    0  0.00000000000E+00  0.00000000000E+00  0.99999944181E+02  0.10000000000E+03  0.10566000000E+00 0. -1.
         22   -1    0    0    0    0 -0.00000000000E+00 -0.00000000000E+00 -0.59590956520E+02  0.59590956520E+02  0.00000000000E+00 0.  1.
         13    1    1    2    0    0  0.12604039518E+02 -0.29958577162E+01 -0.52074316288E+02  0.53661742020E+02  0.10566000000E+00 0.  1.
        996    1    1    2    0    0 -0.12604039518E+02  0.29958577162E+01  0.92483303949E+02  0.10592921450E+03  0.50000000000E+02 0.  0.
<mgrwt>
<rscale>  0 0.51651108E+02</rscale>
<asrwt>0</asrwt>
<pdfrwt beam="1">  1       13 0.10000000E+01 0.51651108E+02</pdfrwt>
<pdfrwt beam="2">  1       22 0.59590968E+00 0.51651108E+02</pdfrwt>
<totfact> 0.62189525E-02</totfact>
</mgrwt>
</event>
<event>
 4    1  0.2486873E+000  0.5589995E+02  0.7957747E-01  0.1415890E+00
         13   -1    0    0    0    0  0.00000000000E+00  0.00000000000E+00  0.99999944188E+02  0.10000000001E+03  0.10566000000E+00 0.  1.
         22   -1    0    0    0    0 -0.00000000000E+00 -0.00000000000E+00 -0.28144626633E+02  0.28144626633E+02  0.00000000000E+00 0. -1.
         13    1    1    2    0    0  0.24482440318E+02 -0.50412453901E+01 -0.11712386553E+02  0.27604260573E+02  0.10566000000E+00 0. -1.
        996    1    1    2    0    0 -0.24482440318E+02  0.50412453901E+01  0.83567704108E+02  0.10054036607E+03  0.50000000000E+02 0.  0.
<mgrwt>
<rscale>  0 0.55899947E+02</rscale>
<asrwt>0</asrwt>
<pdfrwt beam="1">  1       13 0.10000000E+01 0.55899947E+02</pdfrwt>
<pdfrwt beam="2">  1       22 0.28144647E+00 0.55899947E+02</pdfrwt>
<totfact> 0.23501359E-01</totfact>
</mgrwt>
</event>
<event>
 4    1  0.2486873E+000  0.5824693E+02  0.7957747E-01  0.1405339E+00
         13   -1    0    0    0    0  0.00000000000E+00  0.00000000000E+00  0.99999944184E+02  0.10000000000E+03  0.10566000000E+00 0.  1.
         22   -1    0    0    0    0 -0.00000000000E+00 -0.00000000000E+00 -0.19600111093E+02  0.19600111093E+02  0.00000000000E+00 0. -1.
         13    1    1    2    0    0 -0.26011747909E+02 -0.14700149006E+02  0.32884164843E+02  0.44430674894E+02  0.10566000000E+00 0. -1.
        996    1    1    2    0    0  0.26011747909E+02  0.14700149006E+02  0.47515668248E+02  0.75169436204E+02  0.50000000000E+02 0.  0.
<mgrwt>
<rscale>  0 0.58246935E+02</rscale>
<asrwt>0</asrwt>
<pdfrwt beam="1">  1       13 0.10000000E+01 0.58246935E+02</pdfrwt>
<pdfrwt beam="2">  1       22 0.19600134E+00 0.58246935E+02</pdfrwt>
<totfact> 0.47544715E-01</totfact>
</mgrwt>
</event>
<event>
 4    1  0.2486873E+000  0.5817990E+02  0.7957747E-01  0.1405633E+00
         13   -1    0    0    0    0  0.00000000000E+00  0.00000000000E+00  0.99999944187E+02  0.10000000001E+03  0.10566000000E+00 0. -1.
         22   -1    0    0    0    0 -0.00000000000E+00 -0.00000000000E+00 -0.32723016220E+02  0.32723016220E+02  0.00000000000E+00 0.  1.
         13    1    1    2    0    0  0.13690424621E+02  0.26409709933E+02 -0.13912426648E+02  0.32840025644E+02  0.10566000000E+00 0.  1.
        996    1    1    2    0    0 -0.13690424621E+02 -0.26409709933E+02  0.81189354614E+02  0.99882990583E+02  0.50000000000E+02 0.  0.
<mgrwt>
<rscale>  0 0.58179898E+02</rscale>
<asrwt>0</asrwt>
<pdfrwt beam="1">  1       13 0.10000000E+01 0.58179898E+02</pdfrwt>
<pdfrwt beam="2">  1       22 0.32723035E+00 0.58179898E+02</pdfrwt>
<totfact> 0.17800696E-01</totfact>
</mgrwt>
</event>
<event>
 4    1  0.2486873E+000  0.5769777E+02  0.7957747E-01  0.1407755E+00
         13   -1    0    0    0    0  0.00000000000E+00  0.00000000000E+00  0.99999944177E+02  0.99999999997E+02  0.10566000000E+00 0. -1.
         22   -1    0    0    0    0 -0.00000000000E+00 -0.00000000000E+00 -0.20446542718E+02  0.20446542718E+02  0.00000000000E+00 0. -1.
         13    1    1    2    0    0 -0.98948422082E+01  0.27039326279E+02  0.10947956286E+02  0.30804252609E+02  0.10566000000E+00 0.  1.
        996    1    1    2    0    0  0.98948422082E+01 -0.27039326279E+02  0.68605445173E+02  0.89642290105E+02  0.50000000000E+02 0.  0.
<mgrwt>
<rscale>  0 0.57697774E+02</rscale>
<asrwt>0</asrwt>
<pdfrwt beam="1">  1       13 0.10000000E+01 0.57697774E+02</pdfrwt>
<pdfrwt beam="2">  1       22 0.20446565E+00 0.57697774E+02</pdfrwt>
<totfact> 0.43890129E-01</totfact>
</mgrwt>
</event>
<event>
 4    1  0.2486873E+000  0.5186175E+02  0.7957747E-01  0.1435551E+00
         13   -1    0    0    0    0  0.00000000000E+00  0.00000000000E+00  0.99999944174E+02  0.99999999994E+02  0.10566000000E+00 0. -1.
         22   -1    0    0    0    0 -0.00000000000E+00 -0.00000000000E+00 -0.12066113576E+02  0.12066113576E+02  0.00000000000E+00 0.  1.
         13    1    1    2    0    0  0.70215962007E+01 -0.11846462356E+02  0.58304980027E+01  0.14954843849E+02  0.10566000000E+00 0.  1.
        996    1    1    2    0    0 -0.70215962007E+01  0.11846462356E+02  0.82103332595E+02  0.97111269721E+02  0.50000000000E+02 0.  0.
<mgrwt>
<rscale>  0 0.51861754E+02</rscale>
<asrwt>0</asrwt>
<pdfrwt beam="1">  1       13 0.10000000E+01 0.51861754E+02</pdfrwt>
<pdfrwt beam="2">  1       22 0.12066138E+00 0.51861754E+02</pdfrwt>
<totfact> 0.10655927E+00</totfact>
</mgrwt>
</event>
<event>
 4    1  0.2486873E+000  0.5214507E+02  0.7957747E-01  0.1434103E+00
         13   -1    0    0    0    0  0.00000000000E+00  0.00000000000E+00  0.99999944178E+02  0.99999999998E+02  0.10566000000E+00 0. -1.
         22   -1    0    0    0    0 -0.00000000000E+00 -0.00000000000E+00 -0.15275589238E+02  0.15275589238E+02  0.00000000000E+00 0.  1.
         13    1    1    2    0    0  0.53889859563E+01  0.13786480221E+02 -0.11089883878E+01  0.14844164705E+02  0.10566000000E+00 0.  1.
        996    1    1    2    0    0 -0.53889859563E+01 -0.13786480221E+02  0.85833343328E+02  0.10043142453E+03  0.50000000000E+02 0.  0.
<mgrwt>
<rscale>  0 0.52145069E+02</rscale>
<asrwt>0</asrwt>
<pdfrwt beam="1">  1       13 0.10000000E+01 0.52145069E+02</pdfrwt>
<pdfrwt beam="2">  1       22 0.15275613E+00 0.52145069E+02</pdfrwt>
<totfact> 0.73057654E-01</totfact>
</mgrwt>
</event>
<event>
 4    1  0.2486873E+000  0.5254525E+02  0.7957747E-01  0.1432077E+00
         13   -1    0    0    0    0  0.00000000000E+00  0.00000000000E+00  0.99999944186E+02  0.10000000001E+03  0.10566000000E+00 0.  1.
         22   -1    0    0    0    0 -0.00000000000E+00 -0.00000000000E+00 -0.75083667854E+02  0.75083667854E+02  0.00000000000E+00 0. -1.
         13    1    1    2    0    0 -0.16155568144E+02  0.22565616674E-01 -0.67156422534E+02  0.69072419553E+02  0.10566000000E+00 0. -1.
        996    1    1    2    0    0  0.16155568144E+02 -0.22565616674E-01  0.92072698866E+02  0.10601124831E+03  0.50000000000E+02 0.  0.
<mgrwt>
<rscale>  0 0.52545246E+02</rscale>
<asrwt>0</asrwt>
<pdfrwt beam="1">  1       13 0.10000000E+01 0.52545246E+02</pdfrwt>
<pdfrwt beam="2">  1       22 0.75083675E+00 0.52545246E+02</pdfrwt>
<totfact> 0.48654418E-02</totfact>
</mgrwt>
</event>
<event>
 4    1  0.2486873E+000  0.6155157E+02  0.7957747E-01  0.1391433E+00
         13   -1    0    0    0    0  0.00000000000E+00  0.00000000000E+00  0.99999944188E+02  0.10000000001E+03  0.10566000000E+00 0.  1.
         22   -1    0    0    0    0 -0.00000000000E+00 -0.00000000000E+00 -0.23788253433E+02  0.23788253433E+02  0.00000000000E+00 0. -1.
         13    1    1    2    0    0  0.15582192899E+02 -0.32338699164E+02  0.25422208977E+02  0.43987453580E+02  0.10566000000E+00 0. -1.
        996    1    1    2    0    0 -0.15582192899E+02  0.32338699164E+02  0.50789481779E+02  0.79800799861E+02  0.50000000000E+02 0.  0.
<mgrwt>
<rscale>  0 0.61551573E+02</rscale>
<asrwt>0</asrwt>
<pdfrwt beam="1">  1       13 0.10000000E+01 0.61551573E+02</pdfrwt>
<pdfrwt beam="2">  1       22 0.23788275E+00 0.61551573E+02</pdfrwt>
<totfact> 0.32961968E-01</totfact>
</mgrwt>
</event>
<event>
 4    1  0.2486873E+000  0.5117510E+02  0.7957747E-01  0.1439105E+00
         13   -1    0    0    0    0  0.00000000000E+00  0.00000000000E+00  0.99999944172E+02  0.99999999993E+02  0.10566000000E+00 0.  1.
         22   -1    0    0    0    0 -0.00000000000E+00 -0.00000000000E+00 -0.64041746434E+02  0.64041746434E+02  0.00000000000E+00 0. -1.
         13    1    1    2    0    0 -0.44313572751E+01  0.99626361170E+01 -0.56943177017E+02  0.57977820056E+02  0.10566000000E+00 0. -1.
        996    1    1    2    0    0  0.44313572751E+01 -0.99626361170E+01  0.92901374755E+02  0.10606392637E+03  0.50000000000E+02 0.  0.
<mgrwt>
<rscale>  0 0.51175102E+02</rscale>
<asrwt>0</asrwt>
<pdfrwt beam="1">  1       13 0.10000000E+01 0.51175102E+02</pdfrwt>
<pdfrwt beam="2">  1       22 0.64041756E+00 0.51175102E+02</pdfrwt>
<totfact> 0.83514386E-02</totfact>
</mgrwt>
</event>
<event>
 4    1  0.2486873E+000  0.5362899E+02  0.7957747E-01  0.1426696E+00
         13   -1    0    0    0    0  0.00000000000E+00  0.00000000000E+00  0.99999944179E+02  0.99999999999E+02  0.10566000000E+00 0. -1.
         22   -1    0    0    0    0 -0.00000000000E+00 -0.00000000000E+00 -0.13445339560E+02  0.13445339560E+02  0.00000000000E+00 0. -1.
         13    1    1    2    0    0  0.18305709929E+02 -0.64007463087E+01  0.27797693793E+02  0.33893827072E+02  0.10566000000E+00 0.  1.
        996    1    1    2    0    0 -0.18305709929E+02  0.64007463087E+01  0.58756910825E+02  0.79551512487E+02  0.50000000000E+02 0.  0.
<mgrwt>
<rscale>  0 0.53628990E+02</rscale>
<asrwt>0</asrwt>
<pdfrwt beam="1">  1       13 0.10000000E+01 0.53628990E+02</pdfrwt>
<pdfrwt beam="2">  1       22 0.13445364E+00 0.53628990E+02</pdfrwt>
<totfact> 0.90299250E-01</totfact>
</mgrwt>
</event>
<event>
 4    1  0.2486873E+000  0.5348506E+02  0.7957747E-01  0.1427402E+00
         13   -1    0    0    0    0  0.00000000000E+00  0.00000000000E+00  0.99999944173E+02  0.99999999993E+02  0.10566000000E+00 0. -1.
         22   -1    0    0    0    0 -0.00000000000E+00 -0.00000000000E+00 -0.21923395630E+02  0.21923395630E+02  0.00000000000E+00 0.  1.
         13    1    1    2    0    0  0.16795663673E+02  0.88632855108E+01 -0.79805144038E+01  0.20599803942E+02  0.10566000000E+00 0.  1.
        996    1    1    2    0    0 -0.16795663673E+02 -0.88632855108E+01  0.86057062947E+02  0.10132359168E+03  0.50000000000E+02 0.  0.
<mgrwt>
<rscale>  0 0.53485065E+02</rscale>
<asrwt>0</asrwt>
<pdfrwt beam="1">  1       13 0.10000000E+01 0.53485065E+02</pdfrwt>
<pdfrwt beam="2">  1       22 0.21923417E+00 0.53485065E+02</pdfrwt>
<totfact> 0.38170734E-01</totfact>
</mgrwt>
</event>
<event>
 4    1  0.2486873E+000  0.5386811E+02  0.7957747E-01  0.1425529E+00
         13   -1    0    0    0    0  0.00000000000E+00  0.00000000000E+00  0.99999944178E+02  0.99999999998E+02  0.10566000000E+00 0.  1.
         22   -1    0    0    0    0 -0.00000000000E+00 -0.00000000000E+00 -0.33466136178E+02  0.33466136178E+02  0.00000000000E+00 0. -1.
         13    1    1    2    0    0 -0.14089382222E+02  0.14257031342E+02 -0.22043908926E+02  0.29794608890E+02  0.10566000000E+00 0. -1.
        996    1    1    2    0    0  0.14089382222E+02 -0.14257031342E+02  0.88577716926E+02  0.10367152729E+03  0.50000000000E+02 0.  0.
<mgrwt>
<rscale>  0 0.53868113E+02</rscale>
<asrwt>0</asrwt>
<pdfrwt beam="1">  1       13 0.10000000E+01 0.53868113E+02</pdfrwt>
<pdfrwt beam="2">  1       22 0.33466155E+00 0.53868113E+02</pdfrwt>
<totfact> 0.17029229E-01</totfact>
</mgrwt>
</event>
<event>
 4    1  0.2486873E+000  0.6151129E+02  0.7957747E-01  0.1391597E+00
         13   -1    0    0    0    0  0.00000000000E+00  0.00000000000E+00  0.99999944181E+02  0.10000000000E+03  0.10566000000E+00 0.  1.
         22   -1    0    0    0    0 -0.00000000000E+00 -0.00000000000E+00 -0.27306052930E+02  0.27306052930E+02  0.00000000000E+00 0.  1.
         13    1    1    2    0    0  0.35396228577E+02 -0.55448722963E+01  0.55661243150E+01  0.36257847567E+02  0.10566000000E+00 0. -1.
        996    1    1    2    0    0 -0.35396228577E+02  0.55448722963E+01  0.67127766935E+02  0.91048205364E+02  0.50000000000E+02 0.  0.
<mgrwt>
<rscale>  0 0.61511288E+02</rscale>
<asrwt>0</asrwt>
<pdfrwt beam="1">  1       13 0.10000000E+01 0.61511288E+02</pdfrwt>
<pdfrwt beam="2">  1       22 0.27306073E+00 0.61511288E+02</pdfrwt>
<totfact> 0.25106875E-01</totfact>
</mgrwt>
</event>
<event>
 4    1  0.2486873E+000  0.5551815E+02  0.7957747E-01  0.1417664E+00
         13   -1    0    0    0    0  0.00000000000E+00  0.00000000000E+00  0.99999944178E+02  0.99999999998E+02  0.10566000000E+00 0.  1.
         22   -1    0    0    0    0 -0.00000000000E+00 -0.00000000000E+00 -0.42530062151E+02  0.42530062151E+02  0.00000000000E+00 0. -1.
         13    1    1    2    0    0 -0.12882376027E+02 -0.20403672898E+02 -0.30263558255E+02  0.38706066735E+02  0.10566000000E+00 0. -1.
        996    1    1    2    0    0  0.12882376027E+02  0.20403672898E+02  0.87733440282E+02  0.10382399541E+03  0.50000000000E+02 0.  0.
<mgrwt>
<rscale>  0 0.55518155E+02</rscale>
<asrwt>0</asrwt>
<pdfrwt beam="1">  1       13 0.10000000E+01 0.55518155E+02</pdfrwt>
<pdfrwt beam="2">  1       22 0.42530078E+00 0.55518155E+02</pdfrwt>
<totfact> 0.10972871E-01</totfact>
</mgrwt>
</event>
<event>
 4    1  0.2486873E+000  0.5132092E+02  0.7957747E-01  0.1438344E+00
         13   -1    0    0    0    0  0.00000000000E+00  0.00000000000E+00  0.99999944174E+02  0.99999999995E+02  0.10566000000E+00 0. -1.
         22   -1    0    0    0    0 -0.00000000000E+00 -0.00000000000E+00 -0.12839613233E+02  0.12839613233E+02  0.00000000000E+00 0.  1.
         13    1    1    2    0    0 -0.73039955465E+01  0.89715618185E+01 -0.14181881513E+00  0.11570157692E+02  0.10566000000E+00 0.  1.
        996    1    1    2    0    0  0.73039955465E+01 -0.89715618185E+01  0.87302149756E+02  0.10126945554E+03  0.50000000000E+02 0.  0.
<mgrwt>
<rscale>  0 0.51320924E+02</rscale>
<asrwt>0</asrwt>
<pdfrwt beam="1">  1       13 0.10000000E+01 0.51320924E+02</pdfrwt>
<pdfrwt beam="2">  1       22 0.12839638E+00 0.51320924E+02</pdfrwt>
<totfact> 0.96653187E-01</totfact>
</mgrwt>
</event>
<event>
 4    1  0.2486873E+000  0.5193206E+02  0.7957747E-01  0.1435191E+00
         13   -1    0    0    0    0  0.00000000000E+00  0.00000000000E+00  0.99999944172E+02  0.99999999992E+02  0.10566000000E+00 0.  1.
         22   -1    0    0    0    0 -0.00000000000E+00 -0.00000000000E+00 -0.12085720426E+02  0.12085720426E+02  0.00000000000E+00 0.  1.
         13    1    1    2    0    0  0.41266495662E+01  0.13413051811E+02  0.63769264755E+01  0.15414783516E+02  0.10566000000E+00 0. -1.
        996    1    1    2    0    0 -0.41266495662E+01 -0.13413051811E+02  0.81537297270E+02  0.96670936902E+02  0.50000000000E+02 0.  0.
<mgrwt>
<rscale>  0 0.51932063E+02</rscale>
<asrwt>0</asrwt>
<pdfrwt beam="1">  1       13 0.10000000E+01 0.51932063E+02</pdfrwt>
<pdfrwt beam="2">  1       22 0.12085745E+00 0.51932063E+02</pdfrwt>
<totfact> 0.10631072E+00</totfact>
</mgrwt>
</event>
<event>
 4    1  0.2486873E+000  0.7007181E+02  0.7957747E-01  0.1359849E+00
         13   -1    0    0    0    0  0.00000000000E+00  0.00000000000E+00  0.99999944171E+02  0.99999999992E+02  0.10566000000E+00 0.  1.
         22   -1    0    0    0    0 -0.00000000000E+00 -0.00000000000E+00 -0.49637370731E+02  0.49637370731E+02  0.00000000000E+00 0. -1.
         13    1    1    2    0    0 -0.19410672636E+02 -0.45091959428E+02 -0.17473032796E+02  0.52109279945E+02  0.10566000000E+00 0. -1.
        996    1    1    2    0    0  0.19410672636E+02  0.45091959428E+02  0.67835606236E+02  0.97528090777E+02  0.50000000000E+02 0.  0.
<mgrwt>
<rscale>  0 0.70071813E+02</rscale>
<asrwt>0</asrwt>
<pdfrwt beam="1">  1       13 0.10000000E+01 0.70071813E+02</pdfrwt>
<pdfrwt beam="2">  1       22 0.49637385E+00 0.70071813E+02</pdfrwt>
<totfact> 0.75638322E-02</totfact>
</mgrwt>
</event>
<event>
 4    1  0.2486873E+000  0.5170416E+02  0.7957747E-01  0.1436361E+00
         13   -1    0    0    0    0  0.00000000000E+00  0.00000000000E+00  0.99999944173E+02  0.99999999993E+02  0.10566000000E+00 0. -1.
         22   -1    0    0    0    0 -0.00000000000E+00 -0.00000000000E+00 -0.11382426658E+02  0.11382426658E+02  0.00000000000E+00 0. -1.
         13    1    1    2    0    0 -0.77820365228E+01  0.10618849383E+02  0.73973178717E+01  0.15101375116E+02  0.10566000000E+00 0.  1.
        996    1    1    2    0    0  0.77820365228E+01 -0.10618849383E+02  0.81220199643E+02  0.96281051535E+02  0.50000000000E+02 0.  0.
<mgrwt>
<rscale>  0 0.51704159E+02</rscale>
<asrwt>0</asrwt>
<pdfrwt beam="1">  1       13 0.10000000E+01 0.51704159E+02</pdfrwt>
<pdfrwt beam="2">  1       22 0.11382451E+00 0.51704159E+02</pdfrwt>
<totfact> 0.11638565E+00</totfact>
</mgrwt>
</event>
<event>
 4    1  0.2486873E+000  0.5401229E+02  0.7957747E-01  0.1424828E+00
         13   -1    0    0    0    0  0.00000000000E+00  0.00000000000E+00  0.99999944185E+02  0.10000000000E+03  0.10566000000E+00 0. -1.
         22   -1    0    0    0    0 -0.00000000000E+00 -0.00000000000E+00 -0.17070987331E+02  0.17070987331E+02  0.00000000000E+00 0. -1.
         13    1    1    2    0    0 -0.19293073647E+02 -0.67160204375E+01  0.30651675711E+01  0.20657541905E+02  0.10566000000E+00 0.  1.
        996    1    1    2    0    0  0.19293073647E+02  0.67160204375E+01  0.79863789283E+02  0.96413445431E+02  0.50000000000E+02 0.  0.
<mgrwt>
<rscale>  0 0.54012291E+02</rscale>
<asrwt>0</asrwt>
<pdfrwt beam="1">  1       13 0.10000000E+01 0.54012291E+02</pdfrwt>
<pdfrwt beam="2">  1       22 0.17071010E+00 0.54012291E+02</pdfrwt>
<totfact> 0.60586361E-01</totfact>
</mgrwt>
</event>
<event>
 4    1  0.2486873E+000  0.5367806E+02  0.7957747E-01  0.1426456E+00
         13   -1    0    0    0    0  0.00000000000E+00  0.00000000000E+00  0.99999944175E+02  0.99999999996E+02  0.10566000000E+00 0.  1.
         22   -1    0    0    0    0 -0.00000000000E+00 -0.00000000000E+00 -0.61109837797E+02  0.61109837797E+02  0.00000000000E+00 0. -1.
         13    1    1    2    0    0  0.18033083923E+02 -0.74928102513E+01 -0.52003695251E+02  0.55549345676E+02  0.10566000000E+00 0. -1.
        996    1    1    2    0    0 -0.18033083923E+02  0.74928102513E+01  0.90893801629E+02  0.10556049212E+03  0.50000000000E+02 0.  0.
<mgrwt>
<rscale>  0 0.53678062E+02</rscale>
<asrwt>0</asrwt>
<pdfrwt beam="1">  1       13 0.10000000E+01 0.53678062E+02</pdfrwt>
<pdfrwt beam="2">  1       22 0.61109849E+00 0.53678062E+02</pdfrwt>
<totfact> 0.68114955E-02</totfact>
</mgrwt>
</event>
<event>
 4    1  0.2486873E+000  0.5785974E+02  0.7957747E-01  0.1407039E+00
         13   -1    0    0    0    0  0.00000000000E+00  0.00000000000E+00  0.99999944184E+02  0.10000000000E+03  0.10566000000E+00 0. -1.
         22   -1    0    0    0    0 -0.00000000000E+00 -0.00000000000E+00 -0.43062134697E+02  0.43062134697E+02  0.00000000000E+00 0.  1.
         13    1    1    2    0    0 -0.14664672851E+02 -0.25153456817E+02 -0.27930624214E+02  0.40346994345E+02  0.10566000000E+00 0.  1.
        996    1    1    2    0    0  0.14664672851E+02  0.25153456817E+02  0.84868433700E+02  0.10271514036E+03  0.50000000000E+02 0.  0.
<mgrwt>
<rscale>  0 0.57859736E+02</rscale>
<asrwt>0</asrwt>
<pdfrwt beam="1">  1       13 0.10000000E+01 0.57859736E+02</pdfrwt>
<pdfrwt beam="2">  1       22 0.43062151E+00 0.57859736E+02</pdfrwt>
<totfact> 0.10702244E-01</totfact>
</mgrwt>
</event>
<event>
 4    1  0.2486873E+000  0.6144730E+02  0.7957747E-01  0.1391857E+00
         13   -1    0    0    0    0  0.00000000000E+00  0.00000000000E+00  0.99999944191E+02  0.10000000001E+03  0.10566000000E+00 0. -1.
         22   -1    0    0    0    0 -0.00000000000E+00 -0.00000000000E+00 -0.72497942807E+02  0.72497942807E+02  0.00000000000E+00 0.  1.
         13    1    1    2    0    0  0.64292403256E+01 -0.35134531242E+02 -0.57452435921E+02  0.67650306533E+02  0.10566000000E+00 0.  1.
        996    1    1    2    0    0 -0.64292403256E+01  0.35134531242E+02  0.84954437305E+02  0.10484763629E+03  0.50000000000E+02 0.  0.
<mgrwt>
<rscale>  0 0.61447298E+02</rscale>
<asrwt>0</asrwt>
<pdfrwt beam="1">  1       13 0.10000000E+01 0.61447298E+02</pdfrwt>
<pdfrwt beam="2">  1       22 0.72497951E+00 0.61447298E+02</pdfrwt>
<totfact> 0.61378811E-02</totfact>
</mgrwt>
</event>
<event>
 4    1  0.2486873E+000  0.5376924E+02  0.7957747E-01  0.1426011E+00
         13   -1    0    0    0    0  0.00000000000E+00  0.00000000000E+00  0.99999944182E+02  0.10000000000E+03  0.10566000000E+00 0.  1.
         22   -1    0    0    0    0 -0.00000000000E+00 -0.00000000000E+00 -0.13601244504E+02  0.13601244504E+02  0.00000000000E+00 0. -1.
         13    1    1    2    0    0  0.59545654665E+01  0.18859321696E+02  0.27179052283E+02  0.33613136000E+02  0.10566000000E+00 0. -1.
        996    1    1    2    0    0 -0.59545654665E+01 -0.18859321696E+02  0.59219647395E+02  0.79988108506E+02  0.50000000000E+02 0.  0.
<mgrwt>
<rscale>  0 0.53769237E+02</rscale>
<asrwt>0</asrwt>
<pdfrwt beam="1">  1       13 0.10000000E+01 0.53769237E+02</pdfrwt>
<pdfrwt beam="2">  1       22 0.13601269E+00 0.53769237E+02</pdfrwt>
<totfact> 0.88674418E-01</totfact>
</mgrwt>
</event>
<event>
 4    1  0.2486873E+000  0.6095372E+02  0.7957747E-01  0.1393872E+00
         13   -1    0    0    0    0  0.00000000000E+00  0.00000000000E+00  0.99999944183E+02  0.10000000000E+03  0.10566000000E+00 0.  1.
         22   -1    0    0    0    0 -0.00000000000E+00 -0.00000000000E+00 -0.42270987437E+02  0.42270987437E+02  0.00000000000E+00 0. -1.
         13    1    1    2    0    0 -0.16929439750E+02 -0.30475394567E+02 -0.22515895907E+02  0.41500991997E+02  0.10566000000E+00 0. -1.
        996    1    1    2    0    0  0.16929439750E+02  0.30475394567E+02  0.80244852653E+02  0.10076999544E+03  0.50000000000E+02 0.  0.
<mgrwt>
<rscale>  0 0.60953717E+02</rscale>
<asrwt>0</asrwt>
<pdfrwt beam="1">  1       13 0.10000000E+01 0.60953717E+02</pdfrwt>
<pdfrwt beam="2">  1       22 0.42271004E+00 0.60953717E+02</pdfrwt>
<totfact> 0.11151010E-01</totfact>
</mgrwt>
</event>
<event>
 4    1  0.2486873E+000  0.5447417E+02  0.7957747E-01  0.1422602E+00
         13   -1    0    0    0    0  0.00000000000E+00  0.00000000000E+00  0.99999944170E+02  0.99999999990E+02  0.10566000000E+00 0. -1.
         22   -1    0    0    0    0 -0.00000000000E+00 -0.00000000000E+00 -0.30370776036E+02  0.30370776036E+02  0.00000000000E+00 0.  1.
         13    1    1    2    0    0 -0.35196169544E+01 -0.21331832194E+02 -0.17363594009E+02  0.27729773335E+02  0.10566000000E+00 0.  1.
        996    1    1    2    0    0  0.35196169544E+01  0.21331832194E+02  0.86992762143E+02  0.10264100269E+03  0.50000000000E+02 0.  0.
<mgrwt>
<rscale>  0 0.54474166E+02</rscale>
<asrwt>0</asrwt>
<pdfrwt beam="1">  1       13 0.10000000E+01 0.54474166E+02</pdfrwt>
<pdfrwt beam="2">  1       22 0.30370795E+00 0.54474166E+02</pdfrwt>
<totfact> 0.20298706E-01</totfact>
</mgrwt>
</event>
<event>
 4    1  0.2486873E+000  0.5298203E+02  0.7957747E-01  0.1429890E+00
         13   -1    0    0    0    0  0.00000000000E+00  0.00000000000E+00  0.99999944179E+02  0.99999999999E+02  0.10566000000E+00 0.  1.
         22   -1    0    0    0    0 -0.00000000000E+00 -0.00000000000E+00 -0.20414836836E+02  0.20414836836E+02  0.00000000000E+00 0. -1.
         13    1    1    2    0    0  0.22735502589E+01 -0.17376035555E+02 -0.70286191905E+01  0.18881427228E+02  0.10566000000E+00 0. -1.
        996    1    1    2    0    0 -0.22735502589E+01  0.17376035555E+02  0.86613726534E+02  0.10153340961E+03  0.50000000000E+02 0.  0.
<mgrwt>
<rscale>  0 0.52982031E+02</rscale>
<asrwt>0</asrwt>
<pdfrwt beam="1">  1       13 0.10000000E+01 0.52982031E+02</pdfrwt>
<pdfrwt beam="2">  1       22 0.20414859E+00 0.52982031E+02</pdfrwt>
<totfact> 0.43674974E-01</totfact>
</mgrwt>
</event>
<event>
 4    1  0.2486873E+000  0.5711181E+02  0.7957747E-01  0.1410368E+00
         13   -1    0    0    0    0  0.00000000000E+00  0.00000000000E+00  0.99999944183E+02  0.10000000000E+03  0.10566000000E+00 0. -1.
         22   -1    0    0    0    0 -0.00000000000E+00 -0.00000000000E+00 -0.17959462306E+02  0.17959462306E+02  0.00000000000E+00 0. -1.
         13    1    1    2    0    0 -0.27087058909E+02 -0.52962728896E+01  0.24938364014E+02  0.37198016488E+02  0.10566000000E+00 0.  1.
        996    1    1    2    0    0  0.27087058909E+02  0.52962728896E+01  0.57102117862E+02  0.80761445822E+02  0.50000000000E+02 0.  0.
<mgrwt>
<rscale>  0 0.57111814E+02</rscale>
<asrwt>0</asrwt>
<pdfrwt beam="1">  1       13 0.10000000E+01 0.57111814E+02</pdfrwt>
<pdfrwt beam="2">  1       22 0.17959485E+00 0.57111814E+02</pdfrwt>
<totfact> 0.55671570E-01</totfact>
</mgrwt>
</event>
<event>
 4    1  0.2486873E+000  0.6617080E+02  0.7957747E-01  0.1373621E+00
         13   -1    0    0    0    0  0.00000000000E+00  0.00000000000E+00  0.99999944173E+02  0.99999999993E+02  0.10566000000E+00 0. -1.
         22   -1    0    0    0    0 -0.00000000000E+00 -0.00000000000E+00 -0.37985480801E+02  0.37985480801E+02  0.00000000000E+00 0.  1.
         13    1    1    2    0    0 -0.36060649991E+02 -0.24045867302E+02 -0.52138271221E+01  0.43655118478E+02  0.10566000000E+00 0.  1.
        996    1    1    2    0    0  0.36060649991E+02  0.24045867302E+02  0.67228290494E+02  0.94330362317E+02  0.50000000000E+02 0.  0.
<mgrwt>
<rscale>  0 0.66170796E+02</rscale>
<asrwt>0</asrwt>
<pdfrwt beam="1">  1       13 0.10000000E+01 0.66170796E+02</pdfrwt>
<pdfrwt beam="2">  1       22 0.37985498E+00 0.66170796E+02</pdfrwt>
<totfact> 0.13754391E-01</totfact>
</mgrwt>
</event>
<event>
 4    1  0.2486873E+000  0.5187859E+02  0.7957747E-01  0.1435465E+00
         13   -1    0    0    0    0  0.00000000000E+00  0.00000000000E+00  0.99999944178E+02  0.99999999998E+02  0.10566000000E+00 0.  1.
         22   -1    0    0    0    0 -0.00000000000E+00 -0.00000000000E+00 -0.16562562054E+02  0.16562562054E+02  0.00000000000E+00 0.  1.
         13    1    1    2    0    0 -0.13149654517E+01  0.13771653986E+02 -0.44268996098E+01  0.14525707964E+02  0.10566000000E+00 0. -1.
        996    1    1    2    0    0  0.13149654517E+01 -0.13771653986E+02  0.87864281734E+02  0.10203685409E+03  0.50000000000E+02 0.  0.
<mgrwt>
<rscale>  0 0.51878585E+02</rscale>
<asrwt>0</asrwt>
<pdfrwt beam="1">  1       13 0.10000000E+01 0.51878585E+02</pdfrwt>
<pdfrwt beam="2">  1       22 0.16562585E+00 0.51878585E+02</pdfrwt>
<totfact> 0.63609487E-01</totfact>
</mgrwt>
</event>
<event>
 4    1  0.2486873E+000  0.5186582E+02  0.7957747E-01  0.1435530E+00
         13   -1    0    0    0    0  0.00000000000E+00  0.00000000000E+00  0.99999944176E+02  0.99999999996E+02  0.10566000000E+00 0.  1.
         22   -1    0    0    0    0 -0.00000000000E+00 -0.00000000000E+00 -0.14353642092E+02  0.14353642092E+02  0.00000000000E+00 0. -1.
         13    1    1    2    0    0 -0.60163552983E+01  0.12404319969E+02 -0.50348020498E+00  0.13795953803E+02  0.10566000000E+00 0. -1.
        996    1    1    2    0    0  0.60163552983E+01 -0.12404319969E+02  0.86149782289E+02  0.10055768829E+03  0.50000000000E+02 0.  0.
<mgrwt>
<rscale>  0 0.51865824E+02</rscale>
<asrwt>0</asrwt>
<pdfrwt beam="1">  1       13 0.10000000E+01 0.51865824E+02</pdfrwt>
<pdfrwt beam="2">  1       22 0.14353666E+00 0.51865824E+02</pdfrwt>
<totfact> 0.80947808E-01</totfact>
</mgrwt>
</event>
<event>
 4    1  0.2486873E+000  0.5332945E+02  0.7957747E-01  0.1428168E+00
         13   -1    0    0    0    0  0.00000000000E+00  0.00000000000E+00  0.99999944177E+02  0.99999999998E+02  0.10566000000E+00 0.  1.
         22   -1    0    0    0    0 -0.00000000000E+00 -0.00000000000E+00 -0.13273219611E+02  0.13273219611E+02  0.00000000000E+00 0.  1.
         13    1    1    2    0    0  0.39770866899E+01 -0.18116655272E+02  0.14780683495E+02  0.23717297177E+02  0.10566000000E+00 0. -1.
        996    1    1    2    0    0 -0.39770866899E+01  0.18116655272E+02  0.71946041071E+02  0.89555922431E+02  0.50000000000E+02 0.  0.
<mgrwt>
<rscale>  0 0.53329452E+02</rscale>
<asrwt>0</asrwt>
<pdfrwt beam="1">  1       13 0.10000000E+01 0.53329452E+02</pdfrwt>
<pdfrwt beam="2">  1       22 0.13273244E+00 0.53329452E+02</pdfrwt>
<totfact> 0.92113894E-01</totfact>
</mgrwt>
</event>
<event>
 4    1  0.2486873E+000  0.5711381E+02  0.7957747E-01  0.1410359E+00
         13   -1    0    0    0    0  0.00000000000E+00  0.00000000000E+00  0.99999944185E+02  0.10000000000E+03  0.10566000000E+00 0.  1.
         22   -1    0    0    0    0 -0.00000000000E+00 -0.00000000000E+00 -0.18562388309E+02  0.18562388309E+02  0.00000000000E+00 0. -1.
         13    1    1    2    0    0  0.25184432682E+02 -0.11301841839E+02  0.16833752592E+02  0.32332238847E+02  0.10566000000E+00 0. -1.
        996    1    1    2    0    0 -0.25184432682E+02  0.11301841839E+02  0.64603803283E+02  0.86230149467E+02  0.50000000000E+02 0.  0.
<mgrwt>
<rscale>  0 0.57113810E+02</rscale>
<asrwt>0</asrwt>
<pdfrwt beam="1">  1       13 0.10000000E+01 0.57113810E+02</pdfrwt>
<pdfrwt beam="2">  1       22 0.18562411E+00 0.57113810E+02</pdfrwt>
<totfact> 0.52446873E-01</totfact>
</mgrwt>
</event>
<event>
 4    1  0.2486873E+000  0.5764897E+02  0.7957747E-01  0.1407971E+00
         13   -1    0    0    0    0  0.00000000000E+00  0.00000000000E+00  0.99999944186E+02  0.10000000001E+03  0.10566000000E+00 0.  1.
         22   -1    0    0    0    0 -0.00000000000E+00 -0.00000000000E+00 -0.54072476441E+02  0.54072476441E+02  0.00000000000E+00 0. -1.
         13    1    1    2    0    0 -0.50395509815E+01 -0.28249016673E+02 -0.40831777037E+02  0.49906404369E+02  0.10566000000E+00 0. -1.
        996    1    1    2    0    0  0.50395509815E+01  0.28249016673E+02  0.86759244782E+02  0.10416607208E+03  0.50000000000E+02 0.  0.
<mgrwt>
<rscale>  0 0.57648972E+02</rscale>
<asrwt>0</asrwt>
<pdfrwt beam="1">  1       13 0.10000000E+01 0.57648972E+02</pdfrwt>
<pdfrwt beam="2">  1       22 0.54072489E+00 0.57648972E+02</pdfrwt>
<totfact> 0.60564846E-02</totfact>
</mgrwt>
</event>
<event>
 4    1  0.2486873E+000  0.5259199E+02  0.7957747E-01  0.1431842E+00
         13   -1    0    0    0    0  0.00000000000E+00  0.00000000000E+00  0.99999944176E+02  0.99999999996E+02  0.10566000000E+00 0. -1.
         22   -1    0    0    0    0 -0.00000000000E+00 -0.00000000000E+00 -0.16450614950E+02  0.16450614950E+02  0.00000000000E+00 0.  1.
         13    1    1    2    0    0  0.16261324470E+02  0.12194479110E+01 -0.15824744171E+01  0.16383928590E+02  0.10566000000E+00 0.  1.
        996    1    1    2    0    0 -0.16261324470E+02 -0.12194479110E+01  0.85131803643E+02  0.10006668636E+03  0.50000000000E+02 0.  0.
<mgrwt>
<rscale>  0 0.52591993E+02</rscale>
<asrwt>0</asrwt>
<pdfrwt beam="1">  1       13 0.10000000E+01 0.52591993E+02</pdfrwt>
<pdfrwt beam="2">  1       22 0.16450638E+00 0.52591993E+02</pdfrwt>
<totfact> 0.64450663E-01</totfact>
</mgrwt>
</event>
<event>
 4    1  0.2486873E+000  0.5128579E+02  0.7957747E-01  0.1438527E+00
         13   -1    0    0    0    0  0.00000000000E+00  0.00000000000E+00  0.99999944179E+02  0.99999999999E+02  0.10566000000E+00 0.  1.
         22   -1    0    0    0    0 -0.00000000000E+00 -0.00000000000E+00 -0.17412606022E+02  0.17412606022E+02  0.00000000000E+00 0. -1.
         13    1    1    2    0    0 -0.10369349602E+02 -0.47653385277E+01 -0.75659414820E+01  0.13692570869E+02  0.10566000000E+00 0. -1.
        996    1    1    2    0    0  0.10369349602E+02  0.47653385277E+01  0.90153279638E+02  0.10372003515E+03  0.50000000000E+02 0.  0.
<mgrwt>
<rscale>  0 0.51285786E+02</rscale>
<asrwt>0</asrwt>
<pdfrwt beam="1">  1       13 0.10000000E+01 0.51285786E+02</pdfrwt>
<pdfrwt beam="2">  1       22 0.17412629E+00 0.51285786E+02</pdfrwt>
<totfact> 0.58204432E-01</totfact>
</mgrwt>
</event>
<event>
 4    1  0.2486873E+000  0.5148163E+02  0.7957747E-01  0.1437510E+00
         13   -1    0    0    0    0  0.00000000000E+00  0.00000000000E+00  0.99999944177E+02  0.99999999997E+02  0.10566000000E+00 0.  1.
         22   -1    0    0    0    0 -0.00000000000E+00 -0.00000000000E+00 -0.14195970828E+02  0.14195970828E+02  0.00000000000E+00 0. -1.
         13    1    1    2    0    0  0.12141364469E+02  0.17163171013E+01 -0.19881126721E+01  0.12422649943E+02  0.10566000000E+00 0. -1.
        996    1    1    2    0    0 -0.12141364469E+02 -0.17163171013E+01  0.87792086021E+02  0.10177332088E+03  0.50000000000E+02 0.  0.
<mgrwt>
<rscale>  0 0.51481632E+02</rscale>
<asrwt>0</asrwt>
<pdfrwt beam="1">  1       13 0.10000000E+01 0.51481632E+02</pdfrwt>
<pdfrwt beam="2">  1       22 0.14195995E+00 0.51481632E+02</pdfrwt>
<totfact> 0.82354330E-01</totfact>
</mgrwt>
</event>
<event>
 4    1  0.2486873E+000  0.5197889E+02  0.7957747E-01  0.1434951E+00
         13   -1    0    0    0    0  0.00000000000E+00  0.00000000000E+00  0.99999944178E+02  0.99999999998E+02  0.10566000000E+00 0.  1.
         22   -1    0    0    0    0 -0.00000000000E+00 -0.00000000000E+00 -0.14751390238E+02  0.14751390238E+02  0.00000000000E+00 0. -1.
         13    1    1    2    0    0  0.91385051074E+01 -0.10876256735E+02 -0.79263054506E+00  0.14228305007E+02  0.10566000000E+00 0. -1.
        996    1    1    2    0    0 -0.91385051074E+01  0.10876256735E+02  0.86041184485E+02  0.10052308523E+03  0.50000000000E+02 0.  0.
<mgrwt>
<rscale>  0 0.51978892E+02</rscale>
<asrwt>0</asrwt>
<pdfrwt beam="1">  1       13 0.10000000E+01 0.51978892E+02</pdfrwt>
<pdfrwt beam="2">  1       22 0.14751414E+00 0.51978892E+02</pdfrwt>
<totfact> 0.77406604E-01</totfact>
</mgrwt>
</event>
<event>
 4    1  0.2486873E+000  0.5148608E+02  0.7957747E-01  0.1437487E+00
         13   -1    0    0    0    0  0.00000000000E+00  0.00000000000E+00  0.99999944173E+02  0.99999999993E+02  0.10566000000E+00 0. -1.
         22   -1    0    0    0    0 -0.00000000000E+00 -0.00000000000E+00 -0.13644307537E+02  0.13644307537E+02  0.00000000000E+00 0.  1.
         13    1    1    2    0    0 -0.11840789543E+02  0.32575930020E+01 -0.91818585224E+00  0.12315455268E+02  0.10566000000E+00 0.  1.
        996    1    1    2    0    0  0.11840789543E+02 -0.32575930020E+01  0.87273822488E+02  0.10132885226E+03  0.50000000000E+02 0.  0.
<mgrwt>
<rscale>  0 0.51486078E+02</rscale>
<asrwt>0</asrwt>
<pdfrwt beam="1">  1       13 0.10000000E+01 0.51486078E+02</pdfrwt>
<pdfrwt beam="2">  1       22 0.13644332E+00 0.51486078E+02</pdfrwt>
<totfact> 0.87804387E-01</totfact>
</mgrwt>
</event>
<event>
 4    1  0.2486873E+000  0.5099925E+02  0.7957747E-01  0.1440025E+00
         13   -1    0    0    0    0  0.00000000000E+00  0.00000000000E+00  0.99999944178E+02  0.99999999998E+02  0.10566000000E+00 0.  1.
         22   -1    0    0    0    0 -0.00000000000E+00 -0.00000000000E+00 -0.13071937276E+02  0.13071937276E+02  0.00000000000E+00 0. -1.
         13    1    1    2    0    0  0.51942070243E+01  0.85990737842E+01 -0.22918089826E+01  0.10304727508E+02  0.10566000000E+00 0. -1.
        996    1    1    2    0    0 -0.51942070243E+01 -0.85990737842E+01  0.89219815885E+02  0.10276720977E+03  0.50000000000E+02 0.  0.
<mgrwt>
<rscale>  0 0.50999253E+02</rscale>
<asrwt>0</asrwt>
<pdfrwt beam="1">  1       13 0.10000000E+01 0.50999253E+02</pdfrwt>
<pdfrwt beam="2">  1       22 0.13071962E+00 0.50999253E+02</pdfrwt>
<totfact> 0.93898572E-01</totfact>
</mgrwt>
</event>
<event>
 4    1  0.2486873E+000  0.5117578E+02  0.7957747E-01  0.1439101E+00
         13   -1    0    0    0    0  0.00000000000E+00  0.00000000000E+00  0.99999944184E+02  0.10000000000E+03  0.10566000000E+00 0. -1.
         22   -1    0    0    0    0 -0.00000000000E+00 -0.00000000000E+00 -0.10284014673E+02  0.10284014673E+02  0.00000000000E+00 0. -1.
         13    1    1    2    0    0  0.72585572443E+01  0.81408868766E+01  0.68207984258E+01  0.12864491735E+02  0.10566000000E+00 0.  1.
        996    1    1    2    0    0 -0.72585572443E+01 -0.81408868766E+01  0.82895131085E+02  0.97419522941E+02  0.50000000000E+02 0.  0.
<mgrwt>
<rscale>  0 0.51175782E+02</rscale>
<asrwt>0</asrwt>
<pdfrwt beam="1">  1       13 0.10000000E+01 0.51175782E+02</pdfrwt>
<pdfrwt beam="2">  1       22 0.10284040E+00 0.51175782E+02</pdfrwt>
<totfact> 0.13508588E+00</totfact>
</mgrwt>
</event>
<event>
 4    1  0.2486873E+000  0.5288923E+02  0.7957747E-01  0.1430353E+00
         13   -1    0    0    0    0  0.00000000000E+00  0.00000000000E+00  0.99999944179E+02  0.99999999999E+02  0.10566000000E+00 0. -1.
         22   -1    0    0    0    0 -0.00000000000E+00 -0.00000000000E+00 -0.14009907944E+02  0.14009907944E+02  0.00000000000E+00 0.  1.
         13    1    1    2    0    0  0.15999153148E+02  0.64263551128E+01  0.62814098240E+01  0.18350428194E+02  0.10566000000E+00 0.  1.
        996    1    1    2    0    0 -0.15999153148E+02 -0.64263551128E+01  0.79708626411E+02  0.95659479749E+02  0.50000000000E+02 0.  0.
<mgrwt>
<rscale>  0 0.52889233E+02</rscale>
<asrwt>0</asrwt>
<pdfrwt beam="1">  1       13 0.10000000E+01 0.52889233E+02</pdfrwt>
<pdfrwt beam="2">  1       22 0.14009932E+00 0.52889233E+02</pdfrwt>
<totfact> 0.84387086E-01</totfact>
</mgrwt>
</event>
<event>
 4    1  0.2486873E+000  0.5161653E+02  0.7957747E-01  0.1436812E+00
         13   -1    0    0    0    0  0.00000000000E+00  0.00000000000E+00  0.99999944178E+02  0.99999999998E+02  0.10566000000E+00 0.  1.
         22   -1    0    0    0    0 -0.00000000000E+00 -0.00000000000E+00 -0.12196731161E+02  0.12196731161E+02  0.00000000000E+00 0.  1.
         13    1    1    2    0    0 -0.42978759173E+01 -0.12074527869E+02  0.33979897991E+01  0.13259843866E+02  0.10566000000E+00 0. -1.
        996    1    1    2    0    0  0.42978759173E+01  0.12074527869E+02  0.84405223218E+02  0.98936887293E+02  0.50000000000E+02 0.  0.
<mgrwt>
<rscale>  0 0.51616528E+02</rscale>
<asrwt>0</asrwt>
<pdfrwt beam="1">  1       13 0.10000000E+01 0.51616528E+02</pdfrwt>
<pdfrwt beam="2">  1       22 0.12196756E+00 0.51616528E+02</pdfrwt>
<totfact> 0.10475253E+00</totfact>
</mgrwt>
</event>
<event>
 4    1  0.2486873E+000  0.5201277E+02  0.7957747E-01  0.1434778E+00
         13   -1    0    0    0    0  0.00000000000E+00  0.00000000000E+00  0.99999944173E+02  0.99999999993E+02  0.10566000000E+00 0.  1.
         22   -1    0    0    0    0 -0.00000000000E+00 -0.00000000000E+00 -0.11164974602E+02  0.11164974602E+02  0.00000000000E+00 0.  1.
         13    1    1    2    0    0 -0.24175585402E+01 -0.14123875162E+02  0.25077509593E+02  0.28882885768E+02  0.10566000000E+00 0. -1.
        996    1    1    2    0    0  0.24175585402E+01  0.14123875162E+02  0.63757459978E+02  0.82282088827E+02  0.50000000000E+02 0.  0.
<mgrwt>
<rscale>  0 0.52012772E+02</rscale>
<asrwt>0</asrwt>
<pdfrwt beam="1">  1       13 0.10000000E+01 0.52012772E+02</pdfrwt>
<pdfrwt beam="2">  1       22 0.11164999E+00 0.52012772E+02</pdfrwt>
<totfact> 0.11988485E+00</totfact>
</mgrwt>
</event>
<event>
 4    1  0.2486873E+000  0.5566392E+02  0.7957747E-01  0.1416985E+00
         13   -1    0    0    0    0  0.00000000000E+00  0.00000000000E+00  0.99999944179E+02  0.99999999999E+02  0.10566000000E+00 0.  1.
         22   -1    0    0    0    0 -0.00000000000E+00 -0.00000000000E+00 -0.21298179627E+02  0.21298179627E+02  0.00000000000E+00 0. -1.
         13    1    1    2    0    0 -0.11502067955E+02  0.21591060214E+02 -0.52767108902E+00  0.24469594382E+02  0.10566000000E+00 0. -1.
        996    1    1    2    0    0  0.11502067955E+02 -0.21591060214E+02  0.79229435641E+02  0.96828585244E+02  0.50000000000E+02 0.  0.
<mgrwt>
<rscale>  0 0.55663915E+02</rscale>
<asrwt>0</asrwt>
<pdfrwt beam="1">  1       13 0.10000000E+01 0.55663915E+02</pdfrwt>
<pdfrwt beam="2">  1       22 0.21298202E+00 0.55663915E+02</pdfrwt>
<totfact> 0.40489573E-01</totfact>
</mgrwt>
</event>
<event>
 4    1  0.2486873E+000  0.6899923E+02  0.7957747E-01  0.1363530E+00
         13   -1    0    0    0    0  0.00000000000E+00  0.00000000000E+00  0.99999944179E+02  0.10000000000E+03  0.10566000000E+00 0. -1.
         22   -1    0    0    0    0 -0.00000000000E+00 -0.00000000000E+00 -0.33963059050E+02  0.33963059050E+02  0.00000000000E+00 0.  1.
         13    1    1    2    0    0  0.45162460701E+02 -0.14874320191E+02  0.26195239153E+02  0.54287152956E+02  0.10566000000E+00 0.  1.
        996    1    1    2    0    0 -0.45162460701E+02  0.14874320191E+02  0.39841645977E+02  0.79675906094E+02  0.50000000000E+02 0.  0.
<mgrwt>
<rscale>  0 0.68999227E+02</rscale>
<asrwt>0</asrwt>
<pdfrwt beam="1">  1       13 0.10000000E+01 0.68999227E+02</pdfrwt>
<pdfrwt beam="2">  1       22 0.33963077E+00 0.68999227E+02</pdfrwt>
<totfact> 0.16828247E-01</totfact>
</mgrwt>
</event>
<event>
 4    1  0.2486873E+000  0.5439040E+02  0.7957747E-01  0.1423004E+00
         13   -1    0    0    0    0  0.00000000000E+00  0.00000000000E+00  0.99999944174E+02  0.99999999994E+02  0.10566000000E+00 0. -1.
         22   -1    0    0    0    0 -0.00000000000E+00 -0.00000000000E+00 -0.14406343116E+02  0.14406343116E+02  0.00000000000E+00 0. -1.
         13    1    1    2    0    0  0.10712895681E+02 -0.18535083844E+02  0.27033750235E+02  0.34484058386E+02  0.10566000000E+00 0.  1.
        996    1    1    2    0    0 -0.10712895681E+02  0.18535083844E+02  0.58559850823E+02  0.79922284724E+02  0.50000000000E+02 0.  0.
<mgrwt>
<rscale>  0 0.54390399E+02</rscale>
<asrwt>0</asrwt>
<pdfrwt beam="1">  1       13 0.10000000E+01 0.54390399E+02</pdfrwt>
<pdfrwt beam="2">  1       22 0.14406367E+00 0.54390399E+02</pdfrwt>
<totfact> 0.80877004E-01</totfact>
</mgrwt>
</event>
<event>
 4    1  0.2486873E+000  0.5113418E+02  0.7957747E-01  0.1439318E+00
         13   -1    0    0    0    0  0.00000000000E+00  0.00000000000E+00  0.99999944180E+02  0.10000000000E+03  0.10566000000E+00 0.  1.
         22   -1    0    0    0    0 -0.00000000000E+00 -0.00000000000E+00 -0.10823537496E+02  0.10823537496E+02  0.00000000000E+00 0.  1.
         13    1    1    2    0    0  0.75275041492E+01  0.76184938787E+01  0.39139981166E+01  0.11403302723E+02  0.10566000000E+00 0. -1.
        996    1    1    2    0    0 -0.75275041492E+01 -0.76184938787E+01  0.85262408567E+02  0.99420234773E+02  0.50000000000E+02 0.  0.
<mgrwt>
<rscale>  0 0.51134184E+02</rscale>
<asrwt>0</asrwt>
<pdfrwt beam="1">  1       13 0.10000000E+01 0.51134184E+02</pdfrwt>
<pdfrwt beam="2">  1       22 0.10823562E+00 0.51134184E+02</pdfrwt>
<totfact> 0.12529585E+00</totfact>
</mgrwt>
</event>
<event>
 4    1  0.2486873E+000  0.5361921E+02  0.7957747E-01  0.1426744E+00
         13   -1    0    0    0    0  0.00000000000E+00  0.00000000000E+00  0.99999944172E+02  0.99999999992E+02  0.10566000000E+00 0.  1.
         22   -1    0    0    0    0 -0.00000000000E+00 -0.00000000000E+00 -0.14578661324E+02  0.14578661324E+02  0.00000000000E+00 0. -1.
         13    1    1    2    0    0  0.15833323974E+02 -0.11150146556E+02  0.39463225894E+02  0.43958813431E+02  0.10566000000E+00 0. -1.
        996    1    1    2    0    0 -0.15833323974E+02  0.11150146556E+02  0.45958056955E+02  0.70619847885E+02  0.50000000000E+02 0.  0.
<mgrwt>
<rscale>  0 0.53619212E+02</rscale>
<asrwt>0</asrwt>
<pdfrwt beam="1">  1       13 0.10000000E+01 0.53619212E+02</pdfrwt>
<pdfrwt beam="2">  1       22 0.14578685E+00 0.53619212E+02</pdfrwt>
<totfact> 0.79189655E-01</totfact>
</mgrwt>
</event>
<event>
 4    1  0.2486873E+000  0.5303371E+02  0.7957747E-01  0.1429633E+00
         13   -1    0    0    0    0  0.00000000000E+00  0.00000000000E+00  0.99999944178E+02  0.99999999998E+02  0.10566000000E+00 0. -1.
         22   -1    0    0    0    0 -0.00000000000E+00 -0.00000000000E+00 -0.12501365760E+02  0.12501365760E+02  0.00000000000E+00 0. -1.
         13    1    1    2    0    0  0.16514810640E+02  0.63115730713E+01  0.21646795260E+02  0.27949415632E+02  0.10566000000E+00 0.  1.
        996    1    1    2    0    0 -0.16514810640E+02 -0.63115730713E+01  0.65851783159E+02  0.84551950127E+02  0.50000000000E+02 0.  0.
<mgrwt>
<rscale>  0 0.53033715E+02</rscale>
<asrwt>0</asrwt>
<pdfrwt beam="1">  1       13 0.10000000E+01 0.53033715E+02</pdfrwt>
<pdfrwt beam="2">  1       22 0.12501390E+00 0.53033715E+02</pdfrwt>
<totfact> 0.10114361E+00</totfact>
</mgrwt>
</event>
<event>
 4    1  0.2486873E+000  0.6054296E+02  0.7957747E-01  0.1395567E+00
         13   -1    0    0    0    0  0.00000000000E+00  0.00000000000E+00  0.99999944177E+02  0.99999999997E+02  0.10566000000E+00 0.  1.
         22   -1    0    0    0    0 -0.00000000000E+00 -0.00000000000E+00 -0.24776702422E+02  0.24776702422E+02  0.00000000000E+00 0. -1.
         13    1    1    2    0    0 -0.33655720781E+02 -0.57220645267E+01  0.95387755807E+01  0.35446423900E+02  0.10566000000E+00 0. -1.
        996    1    1    2    0    0  0.33655720781E+02  0.57220645267E+01  0.65684466174E+02  0.89330278519E+02  0.50000000000E+02 0.  0.
<mgrwt>
<rscale>  0 0.60542956E+02</rscale>
<asrwt>0</asrwt>
<pdfrwt beam="1">  1       13 0.10000000E+01 0.60542956E+02</pdfrwt>
<pdfrwt beam="2">  1       22 0.24776723E+00 0.60542956E+02</pdfrwt>
<totfact> 0.30379320E-01</totfact>
</mgrwt>
</event>
<event>
 4    1  0.2486873E+000  0.6391467E+02  0.7957747E-01  0.1382101E+00
         13   -1    0    0    0    0  0.00000000000E+00  0.00000000000E+00  0.99999944184E+02  0.10000000000E+03  0.10566000000E+00 0.  1.
         22   -1    0    0    0    0 -0.00000000000E+00 -0.00000000000E+00 -0.31808874155E+02  0.31808874155E+02  0.00000000000E+00 0. -1.
         13    1    1    2    0    0 -0.39167408801E+02 -0.71413998164E+01  0.21008511532E+01  0.39868662420E+02  0.10566000000E+00 0. -1.
        996    1    1    2    0    0  0.39167408801E+02  0.71413998164E+01  0.66090218876E+02  0.91940211739E+02  0.50000000000E+02 0.  0.
<mgrwt>
<rscale>  0 0.63914674E+02</rscale>
<asrwt>0</asrwt>
<pdfrwt beam="1">  1       13 0.10000000E+01 0.63914674E+02</pdfrwt>
<pdfrwt beam="2">  1       22 0.31808893E+00 0.63914674E+02</pdfrwt>
<totfact> 0.18840214E-01</totfact>
</mgrwt>
</event>
<event>
 4    1  0.2486873E+000  0.5499285E+02  0.7957747E-01  0.1420133E+00
         13   -1    0    0    0    0  0.00000000000E+00  0.00000000000E+00  0.99999944182E+02  0.10000000000E+03  0.10566000000E+00 0. -1.
         22   -1    0    0    0    0 -0.00000000000E+00 -0.00000000000E+00 -0.38474120158E+02  0.38474120158E+02  0.00000000000E+00 0.  1.
         13    1    1    2    0    0 -0.22657872104E+02  0.32916194931E+01 -0.26288641055E+02  0.34861407599E+02  0.10566000000E+00 0.  1.
        996    1    1    2    0    0  0.22657872104E+02 -0.32916194931E+01  0.87814465079E+02  0.10361271256E+03  0.50000000000E+02 0.  0.
<mgrwt>
<rscale>  0 0.54992853E+02</rscale>
<asrwt>0</asrwt>
<pdfrwt beam="1">  1       13 0.10000000E+01 0.54992853E+02</pdfrwt>
<pdfrwt beam="2">  1       22 0.38474137E+00 0.54992853E+02</pdfrwt>
<totfact> 0.13326288E-01</totfact>
</mgrwt>
</event>
<event>
 4    1  0.2486873E+000  0.5356671E+02  0.7957747E-01  0.1427001E+00
         13   -1    0    0    0    0  0.00000000000E+00  0.00000000000E+00  0.99999944183E+02  0.10000000000E+03  0.10566000000E+00 0. -1.
         22   -1    0    0    0    0 -0.00000000000E+00 -0.00000000000E+00 -0.15420036309E+02  0.15420036309E+02  0.00000000000E+00 0.  1.
         13    1    1    2    0    0 -0.88253524865E+01 -0.17073542724E+02  0.56563594636E+01  0.20034926356E+02  0.10566000000E+00 0.  1.
        996    1    1    2    0    0  0.88253524865E+01  0.17073542724E+02  0.78923548411E+02  0.95385109957E+02  0.50000000000E+02 0.  0.
<mgrwt>
<rscale>  0 0.53566713E+02</rscale>
<asrwt>0</asrwt>
<pdfrwt beam="1">  1       13 0.10000000E+01 0.53566713E+02</pdfrwt>
<pdfrwt beam="2">  1       22 0.15420060E+00 0.53566713E+02</pdfrwt>
<totfact> 0.72114444E-01</totfact>
</mgrwt>
</event>
<event>
 4    1  0.2486873E+000  0.5393987E+02  0.7957747E-01  0.1425180E+00
         13   -1    0    0    0    0  0.00000000000E+00  0.00000000000E+00  0.99999944176E+02  0.99999999996E+02  0.10566000000E+00 0. -1.
         22   -1    0    0    0    0 -0.00000000000E+00 -0.00000000000E+00 -0.18040175154E+02  0.18040175154E+02  0.00000000000E+00 0.  1.
         13    1    1    2    0    0  0.47300636805E+01  0.19675771864E+02  0.37956125894E+00  0.20240176176E+02  0.10566000000E+00 0.  1.
        996    1    1    2    0    0 -0.47300636805E+01 -0.19675771864E+02  0.81580207762E+02  0.97799998974E+02  0.50000000000E+02 0.  0.
<mgrwt>
<rscale>  0 0.53939869E+02</rscale>
<asrwt>0</asrwt>
<pdfrwt beam="1">  1       13 0.10000000E+01 0.53939869E+02</pdfrwt>
<pdfrwt beam="2">  1       22 0.18040198E+00 0.53939869E+02</pdfrwt>
<totfact> 0.54917849E-01</totfact>
</mgrwt>
</event>
<event>
 4    1  0.2486873E+000  0.5236360E+02  0.7957747E-01  0.1432994E+00
         13   -1    0    0    0    0  0.00000000000E+00  0.00000000000E+00  0.99999944182E+02  0.10000000000E+03  0.10566000000E+00 0.  1.
         22   -1    0    0    0    0 -0.00000000000E+00 -0.00000000000E+00 -0.16786692945E+02  0.16786692945E+02  0.00000000000E+00 0. -1.
         13    1    1    2    0    0  0.14947411866E+02 -0.43036187202E+01 -0.30721387240E+01  0.15855455085E+02  0.10566000000E+00 0. -1.
        996    1    1    2    0    0 -0.14947411866E+02  0.43036187202E+01  0.86285389962E+02  0.10093123786E+03  0.50000000000E+02 0.  0.
<mgrwt>
<rscale>  0 0.52363597E+02</rscale>
<asrwt>0</asrwt>
<pdfrwt beam="1">  1       13 0.10000000E+01 0.52363597E+02</pdfrwt>
<pdfrwt beam="2">  1       22 0.16786716E+00 0.52363597E+02</pdfrwt>
<totfact> 0.62198983E-01</totfact>
</mgrwt>
</event>
<event>
 4    1  0.2486873E+000  0.7771198E+02  0.7957747E-01  0.1335673E+00
         13   -1    0    0    0    0  0.00000000000E+00  0.00000000000E+00  0.99999944175E+02  0.99999999995E+02  0.10566000000E+00 0. -1.
         22   -1    0    0    0    0 -0.00000000000E+00 -0.00000000000E+00 -0.64810447079E+02  0.64810447079E+02  0.00000000000E+00 0.  1.
         13    1    1    2    0    0  0.50557413098E+02  0.31354431864E+02 -0.26948850910E+02  0.65310061599E+02  0.10566000000E+00 0.  1.
        996    1    1    2    0    0 -0.50557413098E+02 -0.31354431864E+02  0.62138348005E+02  0.99500385474E+02  0.50000000000E+02 0.  0.
<mgrwt>
<rscale>  0 0.77711984E+02</rscale>
<asrwt>0</asrwt>
<pdfrwt beam="1">  1       13 0.10000000E+01 0.77711984E+02</pdfrwt>
<pdfrwt beam="2">  1       22 0.64810457E+00 0.77711984E+02</pdfrwt>
<totfact> 0.85973846E-02</totfact>
</mgrwt>
</event>
<event>
 4    1  0.2486873E+000  0.6862589E+02  0.7957747E-01  0.1364829E+00
         13   -1    0    0    0    0  0.00000000000E+00  0.00000000000E+00  0.99999944177E+02  0.99999999997E+02  0.10566000000E+00 0. -1.
         22   -1    0    0    0    0 -0.00000000000E+00 -0.00000000000E+00 -0.40659372073E+02  0.40659372073E+02  0.00000000000E+00 0.  1.
         13    1    1    2    0    0 -0.29845237184E+02 -0.36314929133E+02 -0.41238808999E+01  0.47186118914E+02  0.10566000000E+00 0.  1.
        996    1    1    2    0    0  0.29845237184E+02  0.36314929133E+02  0.63464453004E+02  0.93473253156E+02  0.50000000000E+02 0.  0.
<mgrwt>
<rscale>  0 0.68625886E+02</rscale>
<asrwt>0</asrwt>
<pdfrwt beam="1">  1       13 0.10000000E+01 0.68625886E+02</pdfrwt>
<pdfrwt beam="2">  1       22 0.40659389E+00 0.68625886E+02</pdfrwt>
<totfact> 0.12116837E-01</totfact>
</mgrwt>
</event>
<event>
 4    1  0.2486873E+000  0.5218098E+02  0.7957747E-01  0.1433921E+00
         13   -1    0    0    0    0  0.00000000000E+00  0.00000000000E+00  0.99999944182E+02  0.10000000000E+03  0.10566000000E+00 0.  1.
         22   -1    0    0    0    0 -0.00000000000E+00 -0.00000000000E+00 -0.15771358786E+02  0.15771358786E+02  0.00000000000E+00 0.  1.
         13    1    1    2    0    0  0.14692277669E+02  0.26442112845E+01 -0.19201225865E+01  0.15051674698E+02  0.10566000000E+00 0. -1.
        996    1    1    2    0    0 -0.14692277669E+02 -0.26442112845E+01  0.86148707983E+02  0.10071968409E+03  0.50000000000E+02 0.  0.
<mgrwt>
<rscale>  0 0.52180982E+02</rscale>
<asrwt>0</asrwt>
<pdfrwt beam="1">  1       13 0.10000000E+01 0.52180982E+02</pdfrwt>
<pdfrwt beam="2">  1       22 0.15771382E+00 0.52180982E+02</pdfrwt>
<totfact> 0.69226947E-01</totfact>
</mgrwt>
</event>
<event>
 4    1  0.2486873E+000  0.5556403E+02  0.7957747E-01  0.1417450E+00
         13   -1    0    0    0    0  0.00000000000E+00  0.00000000000E+00  0.99999944176E+02  0.99999999996E+02  0.10566000000E+00 0.  1.
         22   -1    0    0    0    0 -0.00000000000E+00 -0.00000000000E+00 -0.16108845797E+02  0.16108845797E+02  0.00000000000E+00 0. -1.
         13    1    1    2    0    0 -0.17499479708E+02 -0.16766922217E+02  0.31458676586E+02  0.39711723297E+02  0.10566000000E+00 0. -1.
        996    1    1    2    0    0  0.17499479708E+02  0.16766922217E+02  0.52432421793E+02  0.76397122497E+02  0.50000000000E+02 0.  0.
<mgrwt>
<rscale>  0 0.55564030E+02</rscale>
<asrwt>0</asrwt>
<pdfrwt beam="1">  1       13 0.10000000E+01 0.55564030E+02</pdfrwt>
<pdfrwt beam="2">  1       22 0.16108869E+00 0.55564030E+02</pdfrwt>
<totfact> 0.67202090E-01</totfact>
</mgrwt>
</event>
<event>
 4    1  0.2486873E+000  0.5802564E+02  0.7957747E-01  0.1406309E+00
         13   -1    0    0    0    0  0.00000000000E+00  0.00000000000E+00  0.99999944184E+02  0.10000000000E+03  0.10566000000E+00 0. -1.
         22   -1    0    0    0    0 -0.00000000000E+00 -0.00000000000E+00 -0.22897094972E+02  0.22897094972E+02  0.00000000000E+00 0.  1.
         13    1    1    2    0    0 -0.19647372746E+02  0.21930701122E+02  0.42339508545E+01  0.29747477395E+02  0.10566000000E+00 0.  1.
        996    1    1    2    0    0  0.19647372746E+02 -0.21930701122E+02  0.72868898358E+02  0.93149617580E+02  0.50000000000E+02 0.  0.
<mgrwt>
<rscale>  0 0.58025640E+02</rscale>
<asrwt>0</asrwt>
<pdfrwt beam="1">  1       13 0.10000000E+01 0.58025640E+02</pdfrwt>
<pdfrwt beam="2">  1       22 0.22897117E+00 0.58025640E+02</pdfrwt>
<totfact> 0.35342476E-01</totfact>
</mgrwt>
</event>
<event>
 4    1  0.2486873E+000  0.5203797E+02  0.7957747E-01  0.1434649E+00
         13   -1    0    0    0    0  0.00000000000E+00  0.00000000000E+00  0.99999944175E+02  0.99999999996E+02  0.10566000000E+00 0. -1.
         22   -1    0    0    0    0 -0.00000000000E+00 -0.00000000000E+00 -0.16877720870E+02  0.16877720870E+02  0.00000000000E+00 0. -1.
         13    1    1    2    0    0  0.14371175205E+02 -0.11914764537E+01 -0.43797692975E+01  0.15071291784E+02  0.10566000000E+00 0.  1.
        996    1    1    2    0    0 -0.14371175205E+02  0.11914764537E+01  0.87501992603E+02  0.10180642908E+03  0.50000000000E+02 0.  0.
<mgrwt>
<rscale>  0 0.52037970E+02</rscale>
<asrwt>0</asrwt>
<pdfrwt beam="1">  1       13 0.10000000E+01 0.52037970E+02</pdfrwt>
<pdfrwt beam="2">  1       22 0.16877744E+00 0.52037970E+02</pdfrwt>
<totfact> 0.61575781E-01</totfact>
</mgrwt>
</event>
<event>
 4    1  0.2486873E+000  0.5270011E+02  0.7957747E-01  0.1431299E+00
         13   -1    0    0    0    0  0.00000000000E+00  0.00000000000E+00  0.99999944183E+02  0.10000000000E+03  0.10566000000E+00 0. -1.
         22   -1    0    0    0    0 -0.00000000000E+00 -0.00000000000E+00 -0.41932625854E+02  0.41932625854E+02  0.00000000000E+00 0.  1.
         13    1    1    2    0    0 -0.16500549542E+02  0.22434368521E+01 -0.32859049457E+02  0.36837880495E+02  0.10566000000E+00 0.  1.
        996    1    1    2    0    0  0.16500549542E+02 -0.22434368521E+01  0.90926367786E+02  0.10509474536E+03  0.50000000000E+02 0.  0.
<mgrwt>
<rscale>  0 0.52700106E+02</rscale>
<asrwt>0</asrwt>
<pdfrwt beam="1">  1       13 0.10000000E+01 0.52700106E+02</pdfrwt>
<pdfrwt beam="2">  1       22 0.41932642E+00 0.52700106E+02</pdfrwt>
<totfact> 0.11277834E-01</totfact>
</mgrwt>
</event>
<event>
 4    1  0.2486873E+000  0.5179558E+02  0.7957747E-01  0.1435891E+00
         13   -1    0    0    0    0  0.00000000000E+00  0.00000000000E+00  0.99999944173E+02  0.99999999993E+02  0.10566000000E+00 0.  1.
         22   -1    0    0    0    0 -0.00000000000E+00 -0.00000000000E+00 -0.11966297448E+02  0.11966297448E+02  0.00000000000E+00 0. -1.
         13    1    1    2    0    0 -0.10783218514E+02  0.81549983891E+01  0.56500307846E+01  0.14653184369E+02  0.10566000000E+00 0. -1.
        996    1    1    2    0    0  0.10783218514E+02 -0.81549983891E+01  0.82383615941E+02  0.97313113072E+02  0.50000000000E+02 0.  0.
<mgrwt>
<rscale>  0 0.51795577E+02</rscale>
<asrwt>0</asrwt>
<pdfrwt beam="1">  1       13 0.10000000E+01 0.51795577E+02</pdfrwt>
<pdfrwt beam="2">  1       22 0.11966322E+00 0.51795577E+02</pdfrwt>
<totfact> 0.10790834E+00</totfact>
</mgrwt>
</event>
<event>
 4    1  0.2486873E+000  0.5129986E+02  0.7957747E-01  0.1438454E+00
         13   -1    0    0    0    0  0.00000000000E+00  0.00000000000E+00  0.99999944187E+02  0.10000000001E+03  0.10566000000E+00 0. -1.
         22   -1    0    0    0    0 -0.00000000000E+00 -0.00000000000E+00 -0.64965054183E+02  0.64965054183E+02  0.00000000000E+00 0.  1.
         13    1    1    2    0    0  0.10504583744E+02  0.46183380637E+01 -0.57784336572E+02  0.58912783360E+02  0.10566000000E+00 0.  1.
        996    1    1    2    0    0 -0.10504583744E+02 -0.46183380637E+01  0.92819226576E+02  0.10605227083E+03  0.50000000000E+02 0.  0.
<mgrwt>
<rscale>  0 0.51299857E+02</rscale>
<asrwt>0</asrwt>
<pdfrwt beam="1">  1       13 0.10000000E+01 0.51299857E+02</pdfrwt>
<pdfrwt beam="2">  1       22 0.64965064E+00 0.51299857E+02</pdfrwt>
<totfact> 0.86303539E-02</totfact>
</mgrwt>
</event>
<event>
 4    1  0.2486873E+000  0.5173221E+02  0.7957747E-01  0.1436216E+00
         13   -1    0    0    0    0  0.00000000000E+00  0.00000000000E+00  0.99999944179E+02  0.99999999999E+02  0.10566000000E+00 0.  1.
         22   -1    0    0    0    0 -0.00000000000E+00 -0.00000000000E+00 -0.32769665129E+02  0.32769665129E+02  0.00000000000E+00 0. -1.
         13    1    1    2    0    0 -0.85995080128E+01  0.10112854241E+02 -0.24266728554E+02  0.27660561053E+02  0.10566000000E+00 0. -1.
        996    1    1    2    0    0  0.85995080128E+01 -0.10112854241E+02  0.91497007604E+02  0.10510910408E+03  0.50000000000E+02 0.  0.
<mgrwt>
<rscale>  0 0.51732208E+02</rscale>
<asrwt>0</asrwt>
<pdfrwt beam="1">  1       13 0.10000000E+01 0.51732208E+02</pdfrwt>
<pdfrwt beam="2">  1       22 0.32769684E+00 0.51732208E+02</pdfrwt>
<totfact> 0.17630234E-01</totfact>
</mgrwt>
</event>
<event>
 4    1  0.2486873E+000  0.5559917E+02  0.7957747E-01  0.1417286E+00
         13   -1    0    0    0    0  0.00000000000E+00  0.00000000000E+00  0.99999944182E+02  0.10000000000E+03  0.10566000000E+00 0. -1.
         22   -1    0    0    0    0 -0.00000000000E+00 -0.00000000000E+00 -0.20638083745E+02  0.20638083745E+02  0.00000000000E+00 0.  1.
         13    1    1    2    0    0 -0.18561019981E+02 -0.15708492358E+02  0.71976967793E+00  0.24326886922E+02  0.10566000000E+00 0.  1.
        996    1    1    2    0    0  0.18561019981E+02  0.15708492358E+02  0.78642090759E+02  0.96311196825E+02  0.50000000000E+02 0.  0.
<mgrwt>
<rscale>  0 0.55599174E+02</rscale>
<asrwt>0</asrwt>
<pdfrwt beam="1">  1       13 0.10000000E+01 0.55599174E+02</pdfrwt>
<pdfrwt beam="2">  1       22 0.20638106E+00 0.55599174E+02</pdfrwt>
<totfact> 0.42978912E-01</totfact>
</mgrwt>
</event>
<event>
 4    1  0.2486873E+000  0.5473290E+02  0.7957747E-01  0.1421366E+00
         13   -1    0    0    0    0  0.00000000000E+00  0.00000000000E+00  0.99999944175E+02  0.99999999995E+02  0.10566000000E+00 0. -1.
         22   -1    0    0    0    0 -0.00000000000E+00 -0.00000000000E+00 -0.23938416765E+02  0.23938416765E+02  0.00000000000E+00 0.  1.
         13    1    1    2    0    0 -0.18709687683E+02 -0.12068072802E+02 -0.79750944400E+01  0.23649610773E+02  0.10566000000E+00 0.  1.
        996    1    1    2    0    0  0.18709687683E+02  0.12068072802E+02  0.84036621850E+02  0.10028880599E+03  0.50000000000E+02 0.  0.
<mgrwt>
<rscale>  0 0.54732904E+02</rscale>
<asrwt>0</asrwt>
<pdfrwt beam="1">  1       13 0.10000000E+01 0.54732904E+02</pdfrwt>
<pdfrwt beam="2">  1       22 0.23938438E+00 0.54732904E+02</pdfrwt>
<totfact> 0.32239168E-01</totfact>
</mgrwt>
</event>
<event>
 4    1  0.2486873E+000  0.5183819E+02  0.7957747E-01  0.1435672E+00
         13   -1    0    0    0    0  0.00000000000E+00  0.00000000000E+00  0.99999944186E+02  0.10000000001E+03  0.10566000000E+00 0. -1.
         22   -1    0    0    0    0 -0.00000000000E+00 -0.00000000000E+00 -0.10732448226E+02  0.10732448226E+02  0.00000000000E+00 0. -1.
         13    1    1    2    0    0 -0.14196989170E+01 -0.13608186729E+02  0.18769168602E+02  0.23226948683E+02  0.10566000000E+00 0.  1.
        996    1    1    2    0    0  0.14196989170E+01  0.13608186729E+02  0.70498327358E+02  0.87505499549E+02  0.50000000000E+02 0.  0.
<mgrwt>
<rscale>  0 0.51838193E+02</rscale>
<asrwt>0</asrwt>
<pdfrwt beam="1">  1       13 0.10000000E+01 0.51838193E+02</pdfrwt>
<pdfrwt beam="2">  1       22 0.10732473E+00 0.51838193E+02</pdfrwt>
<totfact> 0.12708177E+00</totfact>
</mgrwt>
</event>
<event>
 4    1  0.2486873E+000  0.5134090E+02  0.7957747E-01  0.1438240E+00
         13   -1    0    0    0    0  0.00000000000E+00  0.00000000000E+00  0.99999944176E+02  0.99999999996E+02  0.10566000000E+00 0.  1.
         22   -1    0    0    0    0 -0.00000000000E+00 -0.00000000000E+00 -0.10758275625E+02  0.10758275625E+02  0.00000000000E+00 0.  1.
         13    1    1    2    0    0  0.94653281236E+01  0.68040807194E+01  0.64040107034E+01  0.13300769453E+02  0.10566000000E+00 0. -1.
        996    1    1    2    0    0 -0.94653281236E+01 -0.68040807194E+01  0.82837657847E+02  0.97457506168E+02  0.50000000000E+02 0.  0.
<mgrwt>
<rscale>  0 0.51340899E+02</rscale>
<asrwt>0</asrwt>
<pdfrwt beam="1">  1       13 0.10000000E+01 0.51340899E+02</pdfrwt>
<pdfrwt beam="2">  1       22 0.10758301E+00 0.51340899E+02</pdfrwt>
<totfact> 0.12648336E+00</totfact>
</mgrwt>
</event>
<event>
 4    1  0.2486873E+000  0.5199560E+02  0.7957747E-01  0.1434866E+00
         13   -1    0    0    0    0  0.00000000000E+00  0.00000000000E+00  0.99999944179E+02  0.99999999999E+02  0.10566000000E+00 0. -1.
         22   -1    0    0    0    0 -0.00000000000E+00 -0.00000000000E+00 -0.15732477988E+02  0.15732477988E+02  0.00000000000E+00 0.  1.
         13    1    1    2    0    0  0.12301579869E+02  0.72259032469E+01 -0.25908108134E+01  0.14500552048E+02  0.10566000000E+00 0.  1.
        996    1    1    2    0    0 -0.12301579869E+02 -0.72259032469E+01  0.86858277005E+02  0.10123192594E+03  0.50000000000E+02 0.  0.
<mgrwt>
<rscale>  0 0.51995601E+02</rscale>
<asrwt>0</asrwt>
<pdfrwt beam="1">  1       13 0.10000000E+01 0.51995601E+02</pdfrwt>
<pdfrwt beam="2">  1       22 0.15732502E+00 0.51995601E+02</pdfrwt>
<totfact> 0.69492078E-01</totfact>
</mgrwt>
</event>
<event>
 4    1  0.2486873E+000  0.5361664E+02  0.7957747E-01  0.1426756E+00
         13   -1    0    0    0    0  0.00000000000E+00  0.00000000000E+00  0.99999944175E+02  0.99999999995E+02  0.10566000000E+00 0.  1.
         22   -1    0    0    0    0 -0.00000000000E+00 -0.00000000000E+00 -0.20859644952E+02  0.20859644952E+02  0.00000000000E+00 0.  1.
         13    1    1    2    0    0 -0.13879665945E+02  0.13494423601E+02 -0.59792923942E+01  0.20260989528E+02  0.10566000000E+00 0. -1.
        996    1    1    2    0    0  0.13879665945E+02 -0.13494423601E+02  0.85119591617E+02  0.10059865542E+03  0.50000000000E+02 0.  0.
<mgrwt>
<rscale>  0 0.53616645E+02</rscale>
<asrwt>0</asrwt>
<pdfrwt beam="1">  1       13 0.10000000E+01 0.53616645E+02</pdfrwt>
<pdfrwt beam="2">  1       22 0.20859667E+00 0.53616645E+02</pdfrwt>
<totfact> 0.41980309E-01</totfact>
</mgrwt>
</event>
<event>
 4    1  0.2486873E+000  0.5236744E+02  0.7957747E-01  0.1432975E+00
         13   -1    0    0    0    0  0.00000000000E+00  0.00000000000E+00  0.99999944176E+02  0.99999999997E+02  0.10566000000E+00 0. -1.
         22   -1    0    0    0    0 -0.00000000000E+00 -0.00000000000E+00 -0.12237960843E+02  0.12237960843E+02  0.00000000000E+00 0. -1.
         13    1    1    2    0    0 -0.14620990512E+02  0.53455637047E+01  0.32885659135E+02  0.36384421882E+02  0.10566000000E+00 0.  1.
        996    1    1    2    0    0  0.14620990512E+02 -0.53455637047E+01  0.54876324198E+02  0.75853538958E+02  0.50000000000E+02 0.  0.
<mgrwt>
<rscale>  0 0.52367437E+02</rscale>
<asrwt>0</asrwt>
<pdfrwt beam="1">  1       13 0.10000000E+01 0.52367437E+02</pdfrwt>
<pdfrwt beam="2">  1       22 0.12237985E+00 0.52367437E+02</pdfrwt>
<totfact> 0.10438295E+00</totfact>
</mgrwt>
</event>
<event>
 4    1  0.2486873E+000  0.5128000E+02  0.7957747E-01  0.1438557E+00
         13   -1    0    0    0    0  0.00000000000E+00  0.00000000000E+00  0.99999944180E+02  0.10000000000E+03  0.10566000000E+00 0. -1.
         22   -1    0    0    0    0 -0.00000000000E+00 -0.00000000000E+00 -0.10182380442E+02  0.10182380442E+02  0.00000000000E+00 0. -1.
         13    1    1    2    0    0 -0.51464984728E+01 -0.10156391763E+02  0.92054670904E+01  0.14642080746E+02  0.10566000000E+00 0.  1.
        996    1    1    2    0    0  0.51464984728E+01  0.10156391763E+02  0.80612096647E+02  0.95540299696E+02  0.50000000000E+02 0.  0.
<mgrwt>
<rscale>  0 0.51280003E+02</rscale>
<asrwt>0</asrwt>
<pdfrwt beam="1">  1       13 0.10000000E+01 0.51280003E+02</pdfrwt>
<pdfrwt beam="2">  1       22 0.10182406E+00 0.51280003E+02</pdfrwt>
<totfact> 0.13708936E+00</totfact>
</mgrwt>
</event>
<event>
 4    1  0.2486873E+000  0.5422006E+02  0.7957747E-01  0.1423824E+00
         13   -1    0    0    0    0  0.00000000000E+00  0.00000000000E+00  0.99999944183E+02  0.10000000000E+03  0.10566000000E+00 0. -1.
         22   -1    0    0    0    0 -0.00000000000E+00 -0.00000000000E+00 -0.15606659132E+02  0.15606659132E+02  0.00000000000E+00 0. -1.
         13    1    1    2    0    0  0.15332944833E+02  0.14307894038E+02  0.41402454868E+02  0.46411092017E+02  0.10566000000E+00 0.  1.
        996    1    1    2    0    0 -0.15332944833E+02 -0.14307894038E+02  0.42990830183E+02  0.69195567119E+02  0.50000000000E+02 0.  0.
<mgrwt>
<rscale>  0 0.54220061E+02</rscale>
<asrwt>0</asrwt>
<pdfrwt beam="1">  1       13 0.10000000E+01 0.54220061E+02</pdfrwt>
<pdfrwt beam="2">  1       22 0.15606683E+00 0.54220061E+02</pdfrwt>
<totfact> 0.70753016E-01</totfact>
</mgrwt>
</event>
<event>
 4    1  0.2486873E+000  0.5159869E+02  0.7957747E-01  0.1436905E+00
         13   -1    0    0    0    0  0.00000000000E+00  0.00000000000E+00  0.99999944179E+02  0.99999999999E+02  0.10566000000E+00 0. -1.
         22   -1    0    0    0    0 -0.00000000000E+00 -0.00000000000E+00 -0.10422579874E+02  0.10422579874E+02  0.00000000000E+00 0. -1.
         13    1    1    2    0    0 -0.12414563954E+02 -0.28816403038E+01  0.21603855733E+02  0.25083121727E+02  0.10566000000E+00 0.  1.
        996    1    1    2    0    0  0.12414563954E+02  0.28816403038E+01  0.67973508572E+02  0.85339458146E+02  0.50000000000E+02 0.  0.
<mgrwt>
<rscale>  0 0.51598694E+02</rscale>
<asrwt>0</asrwt>
<pdfrwt beam="1">  1       13 0.10000000E+01 0.51598694E+02</pdfrwt>
<pdfrwt beam="2">  1       22 0.10422605E+00 0.51598694E+02</pdfrwt>
<totfact> 0.13260283E+00</totfact>
</mgrwt>
</event>
<event>
 4    1  0.2486873E+000  0.5712717E+02  0.7957747E-01  0.1410299E+00
         13   -1    0    0    0    0  0.00000000000E+00  0.00000000000E+00  0.99999944181E+02  0.10000000000E+03  0.10566000000E+00 0. -1.
         22   -1    0    0    0    0 -0.00000000000E+00 -0.00000000000E+00 -0.34354488530E+02  0.34354488530E+02  0.00000000000E+00 0.  1.
         13    1    1    2    0    0 -0.41634091957E+01  0.27316280442E+02 -0.18061809136E+02  0.33011411158E+02  0.10566000000E+00 0.  1.
        996    1    1    2    0    0  0.41634091957E+01 -0.27316280442E+02  0.83707264787E+02  0.10134307737E+03  0.50000000000E+02 0.  0.
<mgrwt>
<rscale>  0 0.57127167E+02</rscale>
<asrwt>0</asrwt>
<pdfrwt beam="1">  1       13 0.10000000E+01 0.57127167E+02</pdfrwt>
<pdfrwt beam="2">  1       22 0.34354507E+00 0.57127167E+02</pdfrwt>
<totfact> 0.16318078E-01</totfact>
</mgrwt>
</event>
<event>
 4    1  0.2486873E+000  0.5255014E+02  0.7957747E-01  0.1432053E+00
         13   -1    0    0    0    0  0.00000000000E+00  0.00000000000E+00  0.99999944178E+02  0.99999999998E+02  0.10566000000E+00 0. -1.
         22   -1    0    0    0    0 -0.00000000000E+00 -0.00000000000E+00 -0.12361007935E+02  0.12361007935E+02  0.00000000000E+00 0. -1.
         13    1    1    2    0    0 -0.10064005798E+02 -0.12658321077E+02  0.11482948566E+02  0.19833975320E+02  0.10566000000E+00 0.  1.
        996    1    1    2    0    0  0.10064005798E+02  0.12658321077E+02  0.76155987677E+02  0.92527032613E+02  0.50000000000E+02 0.  0.
<mgrwt>
<rscale>  0 0.52550141E+02</rscale>
<asrwt>0</asrwt>
<pdfrwt beam="1">  1       13 0.10000000E+01 0.52550141E+02</pdfrwt>
<pdfrwt beam="2">  1       22 0.12361032E+00 0.52550141E+02</pdfrwt>
<totfact> 0.10282288E+00</totfact>
</mgrwt>
</event>
<event>
 4    1  0.2486873E+000  0.5819659E+02  0.7957747E-01  0.1405559E+00
         13   -1    0    0    0    0  0.00000000000E+00  0.00000000000E+00  0.99999944179E+02  0.10000000000E+03  0.10566000000E+00 0. -1.
         22   -1    0    0    0    0 -0.00000000000E+00 -0.00000000000E+00 -0.24200778026E+02  0.24200778026E+02  0.00000000000E+00 0. -1.
         13    1    1    2    0    0 -0.13825604855E+02  0.26376055149E+02  0.14933485719E+01  0.29817526538E+02  0.10566000000E+00 0.  1.
        996    1    1    2    0    0  0.13825604855E+02 -0.26376055149E+02  0.74305817582E+02  0.94383251487E+02  0.50000000000E+02 0.  0.
<mgrwt>
<rscale>  0 0.58196595E+02</rscale>
<asrwt>0</asrwt>
<pdfrwt beam="1">  1       13 0.10000000E+01 0.58196595E+02</pdfrwt>
<pdfrwt beam="2">  1       22 0.24200799E+00 0.58196595E+02</pdfrwt>
<totfact> 0.31717997E-01</totfact>
</mgrwt>
</event>
<event>
 4    1  0.2486873E+000  0.5122157E+02  0.7957747E-01  0.1438862E+00
         13   -1    0    0    0    0  0.00000000000E+00  0.00000000000E+00  0.99999944179E+02  0.99999999999E+02  0.10566000000E+00 0. -1.
         22   -1    0    0    0    0 -0.00000000000E+00 -0.00000000000E+00 -0.99139332779E+01  0.99139332779E+01  0.00000000000E+00 0.  1.
         13    1    1    2    0    0  0.10451917499E+02  0.37955563935E+01  0.10663155690E+02  0.15406585639E+02  0.10566000000E+00 0.  1.
        996    1    1    2    0    0 -0.10451917499E+02 -0.37955563935E+01  0.79422855211E+02  0.94507347638E+02  0.50000000000E+02 0.  0.
<mgrwt>
<rscale>  0 0.51221566E+02</rscale>
<asrwt>0</asrwt>
<pdfrwt beam="1">  1       13 0.10000000E+01 0.51221566E+02</pdfrwt>
<pdfrwt beam="2">  1       22 0.99139584E-01 0.51221566E+02</pdfrwt>
<totfact> 0.14248380E+00</totfact>
</mgrwt>
</event>
<event>
 4    1  0.2486873E+000  0.5100405E+02  0.7957747E-01  0.1440000E+00
         13   -1    0    0    0    0  0.00000000000E+00  0.00000000000E+00  0.99999944187E+02  0.10000000001E+03  0.10566000000E+00 0. -1.
         22   -1    0    0    0    0 -0.00000000000E+00 -0.00000000000E+00 -0.17561608976E+02  0.17561608976E+02  0.00000000000E+00 0.  1.
         13    1    1    2    0    0  0.14034485861E+01 -0.99721513746E+01 -0.85776986096E+01  0.13228815081E+02  0.10566000000E+00 0.  1.
        996    1    1    2    0    0 -0.14034485861E+01  0.99721513746E+01  0.91016033821E+02  0.10433279390E+03  0.50000000000E+02 0.  0.
<mgrwt>
<rscale>  0 0.51004053E+02</rscale>
<asrwt>0</asrwt>
<pdfrwt beam="1">  1       13 0.10000000E+01 0.51004053E+02</pdfrwt>
<pdfrwt beam="2">  1       22 0.17561632E+00 0.51004053E+02</pdfrwt>
<totfact> 0.57300977E-01</totfact>
</mgrwt>
</event>
<event>
 4    1  0.2486873E+000  0.5446213E+02  0.7957747E-01  0.1422660E+00
         13   -1    0    0    0    0  0.00000000000E+00  0.00000000000E+00  0.99999944180E+02  0.10000000000E+03  0.10566000000E+00 0.  1.
         22   -1    0    0    0    0 -0.00000000000E+00 -0.00000000000E+00 -0.21542799007E+02  0.21542799007E+02  0.00000000000E+00 0. -1.
         13    1    1    2    0    0  0.34118616091E+01 -0.21318605146E+02 -0.47405527578E+01  0.22104473066E+02  0.10566000000E+00 0. -1.
        996    1    1    2    0    0 -0.34118616091E+01  0.21318605146E+02  0.83197697931E+02  0.99438325942E+02  0.50000000000E+02 0.  0.
<mgrwt>
<rscale>  0 0.54462131E+02</rscale>
<asrwt>0</asrwt>
<pdfrwt beam="1">  1       13 0.10000000E+01 0.54462131E+02</pdfrwt>
<pdfrwt beam="2">  1       22 0.21542821E+00 0.54462131E+02</pdfrwt>
<totfact> 0.39538228E-01</totfact>
</mgrwt>
</event>
<event>
 4    1  0.2486873E+000  0.5493212E+02  0.7957747E-01  0.1420420E+00
         13   -1    0    0    0    0  0.00000000000E+00  0.00000000000E+00  0.99999944173E+02  0.99999999993E+02  0.10566000000E+00 0. -1.
         22   -1    0    0    0    0 -0.00000000000E+00 -0.00000000000E+00 -0.27384169456E+02  0.27384169456E+02  0.00000000000E+00 0. -1.
         13    1    1    2    0    0 -0.20556692419E+02  0.97447655107E+01  0.68636057997E+02  0.72308074787E+02  0.10566000000E+00 0.  1.
        996    1    1    2    0    0  0.20556692419E+02 -0.97447655107E+01  0.39797167205E+01  0.55076094662E+02  0.50000000000E+02 0.  0.
<mgrwt>
<rscale>  0 0.54932122E+02</rscale>
<asrwt>0</asrwt>
<pdfrwt beam="1">  1       13 0.10000000E+01 0.54932122E+02</pdfrwt>
<pdfrwt beam="2">  1       22 0.27384190E+00 0.54932122E+02</pdfrwt>
<totfact> 0.24755474E-01</totfact>
</mgrwt>
</event>
<event>
 4    1  0.2486873E+000  0.5126581E+02  0.7957747E-01  0.1438631E+00
         13   -1    0    0    0    0  0.00000000000E+00  0.00000000000E+00  0.99999944181E+02  0.10000000000E+03  0.10566000000E+00 0.  1.
         22   -1    0    0    0    0 -0.00000000000E+00 -0.00000000000E+00 -0.10742326805E+02  0.10742326805E+02  0.00000000000E+00 0.  1.
         13    1    1    2    0    0 -0.11168614858E+02  0.18560922697E+01  0.56129755413E+01  0.12637234461E+02  0.10566000000E+00 0. -1.
        996    1    1    2    0    0  0.11168614858E+02 -0.18560922697E+01  0.83644641835E+02  0.98105092345E+02  0.50000000000E+02 0.  0.
<mgrwt>
<rscale>  0 0.51265808E+02</rscale>
<asrwt>0</asrwt>
<pdfrwt beam="1">  1       13 0.10000000E+01 0.51265808E+02</pdfrwt>
<pdfrwt beam="2">  1       22 0.10742352E+00 0.51265808E+02</pdfrwt>
<totfact> 0.12673839E+00</totfact>
</mgrwt>
</event>
<event>
 4    1  0.2486873E+000  0.6618241E+02  0.7957747E-01  0.1373578E+00
         13   -1    0    0    0    0  0.00000000000E+00  0.00000000000E+00  0.99999944173E+02  0.99999999993E+02  0.10566000000E+00 0.  1.
         22   -1    0    0    0    0 -0.00000000000E+00 -0.00000000000E+00 -0.30371044239E+02  0.30371044239E+02  0.00000000000E+00 0. -1.
         13    1    1    2    0    0  0.36112510154E+02 -0.23999969648E+02  0.20592148630E+02  0.48001663325E+02  0.10566000000E+00 0. -1.
        996    1    1    2    0    0 -0.36112510154E+02  0.23999969648E+02  0.49036751304E+02  0.82369380908E+02  0.50000000000E+02 0.  0.
<mgrwt>
<rscale>  0 0.66182414E+02</rscale>
<asrwt>0</asrwt>
<pdfrwt beam="1">  1       13 0.10000000E+01 0.66182414E+02</pdfrwt>
<pdfrwt beam="2">  1       22 0.30371064E+00 0.66182414E+02</pdfrwt>
<totfact> 0.20564511E-01</totfact>
</mgrwt>
</event>
<event>
 4    1  0.2486873E+000  0.5110978E+02  0.7957747E-01  0.1439446E+00
         13   -1    0    0    0    0  0.00000000000E+00  0.00000000000E+00  0.99999944180E+02  0.10000000000E+03  0.10566000000E+00 0.  1.
         22   -1    0    0    0    0 -0.00000000000E+00 -0.00000000000E+00 -0.10061016722E+02  0.10061016722E+02  0.00000000000E+00 0.  1.
         13    1    1    2    0    0  0.10373178395E+02  0.21463597873E+01  0.71984321019E+01  0.12807742936E+02  0.10566000000E+00 0. -1.
        996    1    1    2    0    0 -0.10373178395E+02 -0.21463597873E+01  0.82740495356E+02  0.97253273786E+02  0.50000000000E+02 0.  0.
<mgrwt>
<rscale>  0 0.51109781E+02</rscale>
<asrwt>0</asrwt>
<pdfrwt beam="1">  1       13 0.10000000E+01 0.51109781E+02</pdfrwt>
<pdfrwt beam="2">  1       22 0.10061042E+00 0.51109781E+02</pdfrwt>
<totfact> 0.13944055E+00</totfact>
</mgrwt>
</event>
<event>
 4    1  0.2486873E+000  0.6106819E+02  0.7957747E-01  0.1393403E+00
         13   -1    0    0    0    0  0.00000000000E+00  0.00000000000E+00  0.99999944172E+02  0.99999999992E+02  0.10566000000E+00 0. -1.
         22   -1    0    0    0    0 -0.00000000000E+00 -0.00000000000E+00 -0.23996879810E+02  0.23996879810E+02  0.00000000000E+00 0.  1.
         13    1    1    2    0    0  0.62966333426E+01 -0.34491681076E+02  0.39644188119E+02  0.52924441146E+02  0.10566000000E+00 0.  1.
        996    1    1    2    0    0 -0.62966333426E+01  0.34491681076E+02  0.36358876243E+02  0.71072438656E+02  0.50000000000E+02 0.  0.
<mgrwt>
<rscale>  0 0.61068189E+02</rscale>
<asrwt>0</asrwt>
<pdfrwt beam="1">  1       13 0.10000000E+01 0.61068189E+02</pdfrwt>
<pdfrwt beam="2">  1       22 0.23996901E+00 0.61068189E+02</pdfrwt>
<totfact> 0.32379488E-01</totfact>
</mgrwt>
</event>
<event>
 4    1  0.2486873E+000  0.5246185E+02  0.7957747E-01  0.1432498E+00
         13   -1    0    0    0    0  0.00000000000E+00  0.00000000000E+00  0.99999944185E+02  0.10000000000E+03  0.10566000000E+00 0.  1.
         22   -1    0    0    0    0 -0.00000000000E+00 -0.00000000000E+00 -0.13975368691E+02  0.13975368691E+02  0.00000000000E+00 0. -1.
         13    1    1    2    0    0  0.15505302071E+02 -0.34396978972E+01  0.36225787271E+01  0.16290492768E+02  0.10566000000E+00 0. -1.
        996    1    1    2    0    0 -0.15505302071E+02  0.34396978972E+01  0.82401996766E+02  0.97684875928E+02  0.50000000000E+02 0.  0.
<mgrwt>
<rscale>  0 0.52461852E+02</rscale>
<asrwt>0</asrwt>
<pdfrwt beam="1">  1       13 0.10000000E+01 0.52461852E+02</pdfrwt>
<pdfrwt beam="2">  1       22 0.13975393E+00 0.52461852E+02</pdfrwt>
<totfact> 0.84650331E-01</totfact>
</mgrwt>
</event>
<event>
 4    1  0.2486873E+000  0.5129572E+02  0.7957747E-01  0.1438476E+00
         13   -1    0    0    0    0  0.00000000000E+00  0.00000000000E+00  0.99999944179E+02  0.10000000000E+03  0.10566000000E+00 0. -1.
         22   -1    0    0    0    0 -0.00000000000E+00 -0.00000000000E+00 -0.16541910786E+02  0.16541910786E+02  0.00000000000E+00 0. -1.
         13    1    1    2    0    0  0.59958254842E+01 -0.97621962555E+01 -0.63632160346E+01  0.13105421829E+02  0.10566000000E+00 0.  1.
        996    1    1    2    0    0 -0.59958254842E+01  0.97621962555E+01  0.89821249428E+02  0.10343648896E+03  0.50000000000E+02 0.  0.
<mgrwt>
<rscale>  0 0.51295715E+02</rscale>
<asrwt>0</asrwt>
<pdfrwt beam="1">  1       13 0.10000000E+01 0.51295715E+02</pdfrwt>
<pdfrwt beam="2">  1       22 0.16541934E+00 0.51295715E+02</pdfrwt>
<totfact> 0.63673784E-01</totfact>
</mgrwt>
</event>
<event>
 4    1  0.2486873E+000  0.5577168E+02  0.7957747E-01  0.1416484E+00
         13   -1    0    0    0    0  0.00000000000E+00  0.00000000000E+00  0.99999944169E+02  0.99999999989E+02  0.10566000000E+00 0. -1.
         22   -1    0    0    0    0 -0.00000000000E+00 -0.00000000000E+00 -0.17425895017E+02  0.17425895017E+02  0.00000000000E+00 0.  1.
         13    1    1    2    0    0  0.14665884497E+02 -0.19884478886E+02  0.11980146770E+02  0.27459347212E+02  0.10566000000E+00 0.  1.
        996    1    1    2    0    0 -0.14665884497E+02  0.19884478886E+02  0.70593902382E+02  0.89966547795E+02  0.50000000000E+02 0.  0.
<mgrwt>
<rscale>  0 0.55771683E+02</rscale>
<asrwt>0</asrwt>
<pdfrwt beam="1">  1       13 0.10000000E+01 0.55771683E+02</pdfrwt>
<pdfrwt beam="2">  1       22 0.17425918E+00 0.55771683E+02</pdfrwt>
<totfact> 0.58612497E-01</totfact>
</mgrwt>
</event>
<event>
 4    1  0.2486873E+000  0.5254747E+02  0.7957747E-01  0.1432066E+00
         13   -1    0    0    0    0  0.00000000000E+00  0.00000000000E+00  0.99999944177E+02  0.99999999997E+02  0.10566000000E+00 0. -1.
         22   -1    0    0    0    0 -0.00000000000E+00 -0.00000000000E+00 -0.25413665856E+02  0.25413665856E+02  0.00000000000E+00 0.  1.
         13    1    1    2    0    0 -0.79012495097E+01 -0.14099891382E+02 -0.14676587297E+02  0.21832316860E+02  0.10566000000E+00 0.  1.
        996    1    1    2    0    0  0.79012495097E+01  0.14099891382E+02  0.89262865618E+02  0.10358134899E+03  0.50000000000E+02 0.  0.
<mgrwt>
<rscale>  0 0.52547471E+02</rscale>
<asrwt>0</asrwt>
<pdfrwt beam="1">  1       13 0.10000000E+01 0.52547471E+02</pdfrwt>
<pdfrwt beam="2">  1       22 0.25413687E+00 0.52547471E+02</pdfrwt>
<totfact> 0.28566650E-01</totfact>
</mgrwt>
</event>
<event>
 4    1  0.2486873E+000  0.5226116E+02  0.7957747E-01  0.1433514E+00
         13   -1    0    0    0    0  0.00000000000E+00  0.00000000000E+00  0.99999944177E+02  0.99999999997E+02  0.10566000000E+00 0.  1.
         22   -1    0    0    0    0 -0.00000000000E+00 -0.00000000000E+00 -0.40769160661E+02  0.40769160661E+02  0.00000000000E+00 0. -1.
         13    1    1    2    0    0 -0.98474886525E+00 -0.15174278475E+02 -0.32113158650E+02  0.35531599740E+02  0.10566000000E+00 0. -1.
        996    1    1    2    0    0  0.98474886525E+00  0.15174278475E+02  0.91343942166E+02  0.10523756092E+03  0.50000000000E+02 0.  0.
<mgrwt>
<rscale>  0 0.52261156E+02</rscale>
<asrwt>0</asrwt>
<pdfrwt beam="1">  1       13 0.10000000E+01 0.52261156E+02</pdfrwt>
<pdfrwt beam="2">  1       22 0.40769177E+00 0.52261156E+02</pdfrwt>
<totfact> 0.11925241E-01</totfact>
</mgrwt>
</event>
<event>
 4    1  0.2486873E+000  0.5122624E+02  0.7957747E-01  0.1438838E+00
         13   -1    0    0    0    0  0.00000000000E+00  0.00000000000E+00  0.99999944191E+02  0.10000000001E+03  0.10566000000E+00 0.  1.
         22   -1    0    0    0    0 -0.00000000000E+00 -0.00000000000E+00 -0.70979285031E+02  0.70979285031E+02  0.00000000000E+00 0. -1.
         13    1    1    2    0    0  0.59671028726E+01  0.94085965652E+01 -0.63905214637E+02  0.64869219418E+02  0.10566000000E+00 0. -1.
        996    1    1    2    0    0 -0.59671028726E+01 -0.94085965652E+01  0.92925873797E+02  0.10611006562E+03  0.50000000000E+02 0.  0.
<mgrwt>
<rscale>  0 0.51226243E+02</rscale>
<asrwt>0</asrwt>
<pdfrwt beam="1">  1       13 0.10000000E+01 0.51226243E+02</pdfrwt>
<pdfrwt beam="2">  1       22 0.70979293E+00 0.51226243E+02</pdfrwt>
<totfact> 0.69523342E-02</totfact>
</mgrwt>
</event>
<event>
 4    1  0.2486873E+000  0.5150118E+02  0.7957747E-01  0.1437409E+00
         13   -1    0    0    0    0  0.00000000000E+00  0.00000000000E+00  0.99999944185E+02  0.10000000001E+03  0.10566000000E+00 0. -1.
         22   -1    0    0    0    0 -0.00000000000E+00 -0.00000000000E+00 -0.10617751456E+02  0.10617751456E+02  0.00000000000E+00 0. -1.
         13    1    1    2    0    0  0.89005473748E+01 -0.85528831692E+01  0.95166705602E+01  0.15586844987E+02  0.10566000000E+00 0.  1.
        996    1    1    2    0    0 -0.89005473748E+01  0.85528831692E+01  0.79865522169E+02  0.95030906474E+02  0.50000000000E+02 0.  0.
<mgrwt>
<rscale>  0 0.51501180E+02</rscale>
<asrwt>0</asrwt>
<pdfrwt beam="1">  1       13 0.10000000E+01 0.51501180E+02</pdfrwt>
<pdfrwt beam="2">  1       22 0.10617776E+00 0.51501180E+02</pdfrwt>
<totfact> 0.12900909E+00</totfact>
</mgrwt>
</event>
<event>
 4    1  0.2486873E+000  0.5222836E+02  0.7957747E-01  0.1433680E+00
         13   -1    0    0    0    0  0.00000000000E+00  0.00000000000E+00  0.99999944176E+02  0.99999999996E+02  0.10566000000E+00 0. -1.
         22   -1    0    0    0    0 -0.00000000000E+00 -0.00000000000E+00 -0.18308940941E+02  0.18308940941E+02  0.00000000000E+00 0. -1.
         13    1    1    2    0    0  0.62005834791E+00 -0.15080372233E+02 -0.60003152067E+01  0.16242445803E+02  0.10566000000E+00 0.  1.
        996    1    1    2    0    0 -0.62005834791E+00  0.15080372233E+02  0.87691318441E+02  0.10206649513E+03  0.50000000000E+02 0.  0.
<mgrwt>
<rscale>  0 0.52228365E+02</rscale>
<asrwt>0</asrwt>
<pdfrwt beam="1">  1       13 0.10000000E+01 0.52228365E+02</pdfrwt>
<pdfrwt beam="2">  1       22 0.18308964E+00 0.52228365E+02</pdfrwt>
<totfact> 0.53306732E-01</totfact>
</mgrwt>
</event>
<event>
 4    1  0.2486873E+000  0.5614908E+02  0.7957747E-01  0.1414742E+00
         13   -1    0    0    0    0  0.00000000000E+00  0.00000000000E+00  0.99999944182E+02  0.10000000000E+03  0.10566000000E+00 0.  1.
         22   -1    0    0    0    0 -0.00000000000E+00 -0.00000000000E+00 -0.30275166779E+02  0.30275166779E+02  0.00000000000E+00 0. -1.
         13    1    1    2    0    0  0.20221257598E+02 -0.15614732001E+02 -0.14253028373E+02  0.29255411400E+02  0.10566000000E+00 0. -1.
        996    1    1    2    0    0 -0.20221257598E+02  0.15614732001E+02  0.83977805776E+02  0.10101975538E+03  0.50000000000E+02 0.  0.
<mgrwt>
<rscale>  0 0.56149079E+02</rscale>
<asrwt>0</asrwt>
<pdfrwt beam="1">  1       13 0.10000000E+01 0.56149079E+02</pdfrwt>
<pdfrwt beam="2">  1       22 0.30275186E+00 0.56149079E+02</pdfrwt>
<totfact> 0.20459719E-01</totfact>
</mgrwt>
</event>
<event>
 4    1  0.2486873E+000  0.5827269E+02  0.7957747E-01  0.1405227E+00
         13   -1    0    0    0    0  0.00000000000E+00  0.00000000000E+00  0.99999944176E+02  0.99999999996E+02  0.10566000000E+00 0.  1.
         22   -1    0    0    0    0 -0.00000000000E+00 -0.00000000000E+00 -0.27646729767E+02  0.27646729767E+02  0.00000000000E+00 0.  1.
         13    1    1    2    0    0 -0.29483861418E+02 -0.51388989469E+01 -0.54702124957E+01  0.30424344780E+02  0.10566000000E+00 0. -1.
        996    1    1    2    0    0  0.29483861418E+02  0.51388989469E+01  0.77823426905E+02  0.97222384983E+02  0.50000000000E+02 0.  0.
<mgrwt>
<rscale>  0 0.58272690E+02</rscale>
<asrwt>0</asrwt>
<pdfrwt beam="1">  1       13 0.10000000E+01 0.58272690E+02</pdfrwt>
<pdfrwt beam="2">  1       22 0.27646750E+00 0.58272690E+02</pdfrwt>
<totfact> 0.24406259E-01</totfact>
</mgrwt>
</event>
<event>
 4    1  0.2486873E+000  0.5403880E+02  0.7957747E-01  0.1424700E+00
         13   -1    0    0    0    0  0.00000000000E+00  0.00000000000E+00  0.99999944183E+02  0.10000000000E+03  0.10566000000E+00 0. -1.
         22   -1    0    0    0    0 -0.00000000000E+00 -0.00000000000E+00 -0.16364567888E+02  0.16364567888E+02  0.00000000000E+00 0.  1.
         13    1    1    2    0    0 -0.20318427240E+02 -0.27116779835E+01  0.52558264902E+01  0.21161912936E+02  0.10566000000E+00 0.  1.
        996    1    1    2    0    0  0.20318427240E+02  0.27116779835E+01  0.78379549805E+02  0.95202654955E+02  0.50000000000E+02 0.  0.
<mgrwt>
<rscale>  0 0.54038798E+02</rscale>
<asrwt>0</asrwt>
<pdfrwt beam="1">  1       13 0.10000000E+01 0.54038798E+02</pdfrwt>
<pdfrwt beam="2">  1       22 0.16364591E+00 0.54038798E+02</pdfrwt>
<totfact> 0.65217942E-01</totfact>
</mgrwt>
</event>
<event>
 4    1  0.2486873E+000  0.6016759E+02  0.7957747E-01  0.1397130E+00
         13   -1    0    0    0    0  0.00000000000E+00  0.00000000000E+00  0.99999944177E+02  0.99999999997E+02  0.10566000000E+00 0.  1.
         22   -1    0    0    0    0 -0.00000000000E+00 -0.00000000000E+00 -0.22628799841E+02  0.22628799841E+02  0.00000000000E+00 0. -1.
         13    1    1    2    0    0 -0.23565523727E+02 -0.23765624036E+02  0.38421198410E+02  0.50954277992E+02  0.10566000000E+00 0. -1.
        996    1    1    2    0    0  0.23565523727E+02  0.23765624036E+02  0.38949945926E+02  0.71674521847E+02  0.50000000000E+02 0.  0.
<mgrwt>
<rscale>  0 0.60167589E+02</rscale>
<asrwt>0</asrwt>
<pdfrwt beam="1">  1       13 0.10000000E+01 0.60167589E+02</pdfrwt>
<pdfrwt beam="2">  1       22 0.22628821E+00 0.60167589E+02</pdfrwt>
<totfact> 0.36275384E-01</totfact>
</mgrwt>
</event>
<event>
 4    1  0.2486873E+000  0.5289513E+02  0.7957747E-01  0.1430323E+00
         13   -1    0    0    0    0  0.00000000000E+00  0.00000000000E+00  0.99999944171E+02  0.99999999991E+02  0.10566000000E+00 0. -1.
         22   -1    0    0    0    0 -0.00000000000E+00 -0.00000000000E+00 -0.34033142964E+02  0.34033142964E+02  0.00000000000E+00 0.  1.
         13    1    1    2    0    0 -0.95818768171E+01 -0.14355556537E+02 -0.24063839509E+02  0.29613745166E+02  0.10566000000E+00 0.  1.
        996    1    1    2    0    0  0.95818768171E+01  0.14355556537E+02  0.90030640716E+02  0.10441939779E+03  0.50000000000E+02 0.  0.
<mgrwt>
<rscale>  0 0.52895126E+02</rscale>
<asrwt>0</asrwt>
<pdfrwt beam="1">  1       13 0.10000000E+01 0.52895126E+02</pdfrwt>
<pdfrwt beam="2">  1       22 0.34033161E+00 0.52895126E+02</pdfrwt>
<totfact> 0.16517498E-01</totfact>
</mgrwt>
</event>
<event>
 4    1  0.2486873E+000  0.5349282E+02  0.7957747E-01  0.1427364E+00
         13   -1    0    0    0    0  0.00000000000E+00  0.00000000000E+00  0.99999944180E+02  0.10000000000E+03  0.10566000000E+00 0.  1.
         22   -1    0    0    0    0 -0.00000000000E+00 -0.00000000000E+00 -0.35004449108E+02  0.35004449108E+02  0.00000000000E+00 0. -1.
         13    1    1    2    0    0  0.45387283838E+01 -0.18462971321E+02 -0.24335321205E+02  0.30882039886E+02  0.10566000000E+00 0. -1.
        996    1    1    2    0    0 -0.45387283838E+01  0.18462971321E+02  0.89330816277E+02  0.10412240922E+03  0.50000000000E+02 0.  0.
<mgrwt>
<rscale>  0 0.53492816E+02</rscale>
<asrwt>0</asrwt>
<pdfrwt beam="1">  1       13 0.10000000E+01 0.53492816E+02</pdfrwt>
<pdfrwt beam="2">  1       22 0.35004467E+00 0.53492816E+02</pdfrwt>
<totfact> 0.15734862E-01</totfact>
</mgrwt>
</event>
<event>
 4    1  0.2486873E+000  0.5644562E+02  0.7957747E-01  0.1413384E+00
         13   -1    0    0    0    0  0.00000000000E+00  0.00000000000E+00  0.99999944180E+02  0.10000000000E+03  0.10566000000E+00 0.  1.
         22   -1    0    0    0    0 -0.00000000000E+00 -0.00000000000E+00 -0.18101894802E+02  0.18101894802E+02  0.00000000000E+00 0. -1.
         13    1    1    2    0    0 -0.25693905722E+02 -0.50922350832E+01  0.13653370478E+02  0.29538675306E+02  0.10566000000E+00 0. -1.
        996    1    1    2    0    0  0.25693905722E+02  0.50922350832E+01  0.68244678900E+02  0.88563219496E+02  0.50000000000E+02 0.  0.
<mgrwt>
<rscale>  0 0.56445617E+02</rscale>
<asrwt>0</asrwt>
<pdfrwt beam="1">  1       13 0.10000000E+01 0.56445617E+02</pdfrwt>
<pdfrwt beam="2">  1       22 0.18101918E+00 0.56445617E+02</pdfrwt>
<totfact> 0.54823793E-01</totfact>
</mgrwt>
</event>
<event>
 4    1  0.2486873E+000  0.5631409E+02  0.7957747E-01  0.1413985E+00
         13   -1    0    0    0    0  0.00000000000E+00  0.00000000000E+00  0.99999944179E+02  0.99999999999E+02  0.10566000000E+00 0. -1.
         22   -1    0    0    0    0 -0.00000000000E+00 -0.00000000000E+00 -0.24335035015E+02  0.24335035015E+02  0.00000000000E+00 0.  1.
         13    1    1    2    0    0 -0.27108652662E+01 -0.25766797347E+02 -0.45707808965E+01  0.26309310863E+02  0.10566000000E+00 0.  1.
        996    1    1    2    0    0  0.27108652662E+01  0.25766797347E+02  0.80235690060E+02  0.98025724151E+02  0.50000000000E+02 0.  0.
<mgrwt>
<rscale>  0 0.56314089E+02</rscale>
<asrwt>0</asrwt>
<pdfrwt beam="1">  1       13 0.10000000E+01 0.56314089E+02</pdfrwt>
<pdfrwt beam="2">  1       22 0.24335056E+00 0.56314089E+02</pdfrwt>
<totfact> 0.31289394E-01</totfact>
</mgrwt>
</event>
<event>
 4    1  0.2486873E+000  0.5701787E+02  0.7957747E-01  0.1410790E+00
         13   -1    0    0    0    0  0.00000000000E+00  0.00000000000E+00  0.99999944180E+02  0.10000000000E+03  0.10566000000E+00 0. -1.
         22   -1    0    0    0    0 -0.00000000000E+00 -0.00000000000E+00 -0.26769697337E+02  0.26769697337E+02  0.00000000000E+00 0. -1.
         13    1    1    2    0    0  0.11296203972E+02 -0.24968656116E+02 -0.70538473539E+01  0.28298514784E+02  0.10566000000E+00 0.  1.
        996    1    1    2    0    0 -0.11296203972E+02  0.24968656116E+02  0.80284094197E+02  0.98471182554E+02  0.50000000000E+02 0.  0.
<mgrwt>
<rscale>  0 0.57017874E+02</rscale>
<asrwt>0</asrwt>
<pdfrwt beam="1">  1       13 0.10000000E+01 0.57017874E+02</pdfrwt>
<pdfrwt beam="2">  1       22 0.26769718E+00 0.57017874E+02</pdfrwt>
<totfact> 0.25954309E-01</totfact>
</mgrwt>
</event>
<event>
 4    1  0.2486873E+000  0.5231475E+02  0.7957747E-01  0.1433242E+00
         13   -1    0    0    0    0  0.00000000000E+00  0.00000000000E+00  0.99999944177E+02  0.99999999997E+02  0.10566000000E+00 0.  1.
         22   -1    0    0    0    0 -0.00000000000E+00 -0.00000000000E+00 -0.23421252934E+02  0.23421252934E+02  0.00000000000E+00 0. -1.
         13    1    1    2    0    0 -0.34077613294E+01  0.15007337868E+02 -0.12693874207E+02  0.19949401835E+02  0.10566000000E+00 0. -1.
        996    1    1    2    0    0  0.34077613294E+01 -0.15007337868E+02  0.89272565450E+02  0.10347185110E+03  0.50000000000E+02 0.  0.
<mgrwt>
<rscale>  0 0.52314750E+02</rscale>
<asrwt>0</asrwt>
<pdfrwt beam="1">  1       13 0.10000000E+01 0.52314750E+02</pdfrwt>
<pdfrwt beam="2">  1       22 0.23421274E+00 0.52314750E+02</pdfrwt>
<totfact> 0.33518092E-01</totfact>
</mgrwt>
</event>
<event>
 4    1  0.2486873E+000  0.5519265E+02  0.7957747E-01  0.1419190E+00
         13   -1    0    0    0    0  0.00000000000E+00  0.00000000000E+00  0.99999944178E+02  0.99999999998E+02  0.10566000000E+00 0.  1.
         22   -1    0    0    0    0 -0.00000000000E+00 -0.00000000000E+00 -0.18916386637E+02  0.18916386637E+02  0.00000000000E+00 0. -1.
         13    1    1    2    0    0 -0.20175924817E+02  0.11796628932E+02  0.33932729749E+01  0.23616813119E+02  0.10566000000E+00 0. -1.
        996    1    1    2    0    0  0.20175924817E+02 -0.11796628932E+02  0.77690284566E+02  0.95299573516E+02  0.50000000000E+02 0.  0.
<mgrwt>
<rscale>  0 0.55192648E+02</rscale>
<asrwt>0</asrwt>
<pdfrwt beam="1">  1       13 0.10000000E+01 0.55192648E+02</pdfrwt>
<pdfrwt beam="2">  1       22 0.18916409E+00 0.55192648E+02</pdfrwt>
<totfact> 0.50504145E-01</totfact>
</mgrwt>
</event>
<event>
 4    1  0.2486873E+000  0.5287700E+02  0.7957747E-01  0.1430414E+00
         13   -1    0    0    0    0  0.00000000000E+00  0.00000000000E+00  0.99999944179E+02  0.99999999999E+02  0.10566000000E+00 0.  1.
         22   -1    0    0    0    0 -0.00000000000E+00 -0.00000000000E+00 -0.13225123152E+02  0.13225123152E+02  0.00000000000E+00 0. -1.
         13    1    1    2    0    0  0.85956889895E-01  0.17203771242E+02  0.96836756445E+01  0.19742387687E+02  0.10566000000E+00 0. -1.
        996    1    1    2    0    0 -0.85956889895E-01 -0.17203771242E+02  0.77091145383E+02  0.93482735465E+02  0.50000000000E+02 0.  0.
<mgrwt>
<rscale>  0 0.52877000E+02</rscale>
<asrwt>0</asrwt>
<pdfrwt beam="1">  1       13 0.10000000E+01 0.52877000E+02</pdfrwt>
<pdfrwt beam="2">  1       22 0.13225147E+00 0.52877000E+02</pdfrwt>
<totfact> 0.92558218E-01</totfact>
</mgrwt>
</event>
<event>
 4    1  0.2486873E+000  0.5201785E+02  0.7957747E-01  0.1434752E+00
         13   -1    0    0    0    0  0.00000000000E+00  0.00000000000E+00  0.99999944181E+02  0.10000000000E+03  0.10566000000E+00 0. -1.
         22   -1    0    0    0    0 -0.00000000000E+00 -0.00000000000E+00 -0.43008533005E+02  0.43008533005E+02  0.00000000000E+00 0.  1.
         13    1    1    2    0    0 -0.11246253438E+02  0.89094505717E+01 -0.34722353797E+02  0.37570061793E+02  0.10566000000E+00 0.  1.
        996    1    1    2    0    0  0.11246253438E+02 -0.89094505717E+01  0.91713764974E+02  0.10543847121E+03  0.50000000000E+02 0.  0.
<mgrwt>
<rscale>  0 0.52017848E+02</rscale>
<asrwt>0</asrwt>
<pdfrwt beam="1">  1       13 0.10000000E+01 0.52017848E+02</pdfrwt>
<pdfrwt beam="2">  1       22 0.43008549E+00 0.52017848E+02</pdfrwt>
<totfact> 0.10691605E-01</totfact>
</mgrwt>
</event>
<event>
 4    1  0.2486873E+000  0.5608132E+02  0.7957747E-01  0.1415053E+00
         13   -1    0    0    0    0  0.00000000000E+00  0.00000000000E+00  0.99999944182E+02  0.10000000000E+03  0.10566000000E+00 0.  1.
         22   -1    0    0    0    0 -0.00000000000E+00 -0.00000000000E+00 -0.18387371507E+02  0.18387371507E+02  0.00000000000E+00 0. -1.
         13    1    1    2    0    0 -0.20629909939E+02  0.14816259934E+02  0.96911569104E+01  0.27185371596E+02  0.10566000000E+00 0. -1.
        996    1    1    2    0    0  0.20629909939E+02 -0.14816259934E+02  0.71921415764E+02  0.91201999913E+02  0.50000000000E+02 0.  0.
<mgrwt>
<rscale>  0 0.56081323E+02</rscale>
<asrwt>0</asrwt>
<pdfrwt beam="1">  1       13 0.10000000E+01 0.56081323E+02</pdfrwt>
<pdfrwt beam="2">  1       22 0.18387394E+00 0.56081323E+02</pdfrwt>
<totfact> 0.53262826E-01</totfact>
</mgrwt>
</event>
<event>
 4    1  0.2486873E+000  0.5402849E+02  0.7957747E-01  0.1424750E+00
         13   -1    0    0    0    0  0.00000000000E+00  0.00000000000E+00  0.99999944175E+02  0.99999999996E+02  0.10566000000E+00 0.  1.
         22   -1    0    0    0    0 -0.00000000000E+00 -0.00000000000E+00 -0.39605594512E+02  0.39605594512E+02  0.00000000000E+00 0. -1.
         13    1    1    2    0    0 -0.26718741294E+01  0.20296279286E+02 -0.28793526633E+02  0.35329254227E+02  0.10566000000E+00 0. -1.
        996    1    1    2    0    0  0.26718741294E+01 -0.20296279286E+02  0.89187876296E+02  0.10427634028E+03  0.50000000000E+02 0.  0.
<mgrwt>
<rscale>  0 0.54028491E+02</rscale>
<asrwt>0</asrwt>
<pdfrwt beam="1">  1       13 0.10000000E+01 0.54028491E+02</pdfrwt>
<pdfrwt beam="2">  1       22 0.39605611E+00 0.54028491E+02</pdfrwt>
<totfact> 0.12621255E-01</totfact>
</mgrwt>
</event>
<event>
 4    1  0.2486873E+000  0.5192239E+02  0.7957747E-01  0.1435240E+00
         13   -1    0    0    0    0  0.00000000000E+00  0.00000000000E+00  0.99999944176E+02  0.99999999996E+02  0.10566000000E+00 0.  1.
         22   -1    0    0    0    0 -0.00000000000E+00 -0.00000000000E+00 -0.10951822925E+02  0.10951822925E+02  0.00000000000E+00 0.  1.
         13    1    1    2    0    0 -0.13694307103E+02  0.28983903177E+01  0.23192598109E+02  0.27089527211E+02  0.10566000000E+00 0. -1.
        996    1    1    2    0    0  0.13694307103E+02 -0.28983903177E+01  0.65855523142E+02  0.83862295710E+02  0.50000000000E+02 0.  0.
<mgrwt>
<rscale>  0 0.51922391E+02</rscale>
<asrwt>0</asrwt>
<pdfrwt beam="1">  1       13 0.10000000E+01 0.51922391E+02</pdfrwt>
<pdfrwt beam="2">  1       22 0.10951848E+00 0.51922391E+02</pdfrwt>
<totfact> 0.12335291E+00</totfact>
</mgrwt>
</event>
<event>
 4    1  0.2486873E+000  0.5661463E+02  0.7957747E-01  0.1412614E+00
         13   -1    0    0    0    0  0.00000000000E+00  0.00000000000E+00  0.99999944188E+02  0.10000000001E+03  0.10566000000E+00 0. -1.
         22   -1    0    0    0    0 -0.00000000000E+00 -0.00000000000E+00 -0.28073440954E+02  0.28073440954E+02  0.00000000000E+00 0. -1.
         13    1    1    2    0    0  0.17346230822E+02  0.20107821472E+02 -0.10095124140E+02  0.28410190136E+02  0.10566000000E+00 0.  1.
        996    1    1    2    0    0 -0.17346230822E+02 -0.20107821472E+02  0.82021627375E+02  0.99663250826E+02  0.50000000000E+02 0.  0.
<mgrwt>
<rscale>  0 0.56614629E+02</rscale>
<asrwt>0</asrwt>
<pdfrwt beam="1">  1       13 0.10000000E+01 0.56614629E+02</pdfrwt>
<pdfrwt beam="2">  1       22 0.28073461E+00 0.56614629E+02</pdfrwt>
<totfact> 0.23639050E-01</totfact>
</mgrwt>
</event>
<event>
 4    1  0.2486873E+000  0.5317815E+02  0.7957747E-01  0.1428916E+00
         13   -1    0    0    0    0  0.00000000000E+00  0.00000000000E+00  0.99999944173E+02  0.99999999993E+02  0.10566000000E+00 0. -1.
         22   -1    0    0    0    0 -0.00000000000E+00 -0.00000000000E+00 -0.17376695860E+02  0.17376695860E+02  0.00000000000E+00 0. -1.
         13    1    1    2    0    0 -0.10745999893E+02  0.14575277039E+02 -0.11556292228E+01  0.18145574044E+02  0.10566000000E+00 0.  1.
        996    1    1    2    0    0  0.10745999893E+02 -0.14575277039E+02  0.83778877535E+02  0.99231121809E+02  0.50000000000E+02 0.  0.
<mgrwt>
<rscale>  0 0.53178146E+02</rscale>
<asrwt>0</asrwt>
<pdfrwt beam="1">  1       13 0.10000000E+01 0.53178146E+02</pdfrwt>
<pdfrwt beam="2">  1       22 0.17376719E+00 0.53178146E+02</pdfrwt>
<totfact> 0.58628780E-01</totfact>
</mgrwt>
</event>
<event>
 4    1  0.2486873E+000  0.5465986E+02  0.7957747E-01  0.1421714E+00
         13   -1    0    0    0    0  0.00000000000E+00  0.00000000000E+00  0.99999944178E+02  0.99999999999E+02  0.10566000000E+00 0. -1.
         22   -1    0    0    0    0 -0.00000000000E+00 -0.00000000000E+00 -0.70516046751E+02  0.70516046751E+02  0.00000000000E+00 0.  1.
         13    1    1    2    0    0 -0.15572956225E+02  0.15658330513E+02 -0.60960705479E+02  0.64837636112E+02  0.10566000000E+00 0.  1.
        996    1    1    2    0    0  0.15572956225E+02 -0.15658330513E+02  0.90444602906E+02  0.10567841064E+03  0.50000000000E+02 0.  0.
<mgrwt>
<rscale>  0 0.54659860E+02</rscale>
<asrwt>0</asrwt>
<pdfrwt beam="1">  1       13 0.10000000E+01 0.54659860E+02</pdfrwt>
<pdfrwt beam="2">  1       22 0.70516055E+00 0.54659860E+02</pdfrwt>
<totfact> 0.71966746E-02</totfact>
</mgrwt>
</event>
<event>
 4    1  0.2486873E+000  0.5775286E+02  0.7957747E-01  0.1407511E+00
         13   -1    0    0    0    0  0.00000000000E+00  0.00000000000E+00  0.99999944168E+02  0.99999999988E+02  0.10566000000E+00 0. -1.
         22   -1    0    0    0    0 -0.00000000000E+00 -0.00000000000E+00 -0.19460502057E+02  0.19460502057E+02  0.00000000000E+00 0. -1.
         13    1    1    2    0    0  0.23718756068E+01 -0.28805671478E+02  0.16728757290E+02  0.33395433635E+02  0.10566000000E+00 0.  1.
        996    1    1    2    0    0 -0.23718756068E+01  0.28805671478E+02  0.63810684820E+02  0.86065068410E+02  0.50000000000E+02 0.  0.
<mgrwt>
<rscale>  0 0.57752857E+02</rscale>
<asrwt>0</asrwt>
<pdfrwt beam="1">  1       13 0.10000000E+01 0.57752857E+02</pdfrwt>
<pdfrwt beam="2">  1       22 0.19460525E+00 0.57752857E+02</pdfrwt>
<totfact> 0.48140837E-01</totfact>
</mgrwt>
</event>
<event>
 4    1  0.2486873E+000  0.5363545E+02  0.7957747E-01  0.1426664E+00
         13   -1    0    0    0    0  0.00000000000E+00  0.00000000000E+00  0.99999944179E+02  0.99999999999E+02  0.10566000000E+00 0.  1.
         22   -1    0    0    0    0 -0.00000000000E+00 -0.00000000000E+00 -0.13346334401E+02  0.13346334401E+02  0.00000000000E+00 0. -1.
         13    1    1    2    0    0 -0.19128870584E+02 -0.32936593708E+01  0.21888254941E+02  0.29255234579E+02  0.10566000000E+00 0. -1.
        996    1    1    2    0    0  0.19128870584E+02  0.32936593708E+01  0.64765354837E+02  0.84091099820E+02  0.50000000000E+02 0.  0.
<mgrwt>
<rscale>  0 0.53635454E+02</rscale>
<asrwt>0</asrwt>
<pdfrwt beam="1">  1       13 0.10000000E+01 0.53635454E+02</pdfrwt>
<pdfrwt beam="2">  1       22 0.13346359E+00 0.53635454E+02</pdfrwt>
<totfact> 0.91370789E-01</totfact>
</mgrwt>
</event>
<event>
 4    1  0.2486873E+000  0.5465944E+02  0.7957747E-01  0.1421716E+00
         13   -1    0    0    0    0  0.00000000000E+00  0.00000000000E+00  0.99999944180E+02  0.10000000000E+03  0.10566000000E+00 0.  1.
         22   -1    0    0    0    0 -0.00000000000E+00 -0.00000000000E+00 -0.15408934391E+02  0.15408934391E+02  0.00000000000E+00 0.  1.
         13    1    1    2    0    0  0.27719742995E+01  0.21908233170E+02  0.14067261620E+02  0.26183077276E+02  0.10566000000E+00 0. -1.
        996    1    1    2    0    0 -0.27719742995E+01 -0.21908233170E+02  0.70523748168E+02  0.89225857115E+02  0.50000000000E+02 0.  0.
<mgrwt>
<rscale>  0 0.54659441E+02</rscale>
<asrwt>0</asrwt>
<pdfrwt beam="1">  1       13 0.10000000E+01 0.54659441E+02</pdfrwt>
<pdfrwt beam="2">  1       22 0.15408958E+00 0.54659441E+02</pdfrwt>
<totfact> 0.72354815E-01</totfact>
</mgrwt>
</event>
<event>
 4    1  0.2486873E+000  0.5108805E+02  0.7957747E-01  0.1439560E+00
         13   -1    0    0    0    0  0.00000000000E+00  0.00000000000E+00  0.99999944180E+02  0.10000000000E+03  0.10566000000E+00 0.  1.
         22   -1    0    0    0    0 -0.00000000000E+00 -0.00000000000E+00 -0.24366279789E+02  0.24366279789E+02  0.00000000000E+00 0. -1.
         13    1    1    2    0    0  0.10176606729E+02 -0.25349193632E+01 -0.16188286392E+02  0.19288880762E+02  0.10566000000E+00 0. -1.
        996    1    1    2    0    0 -0.10176606729E+02  0.25349193632E+01  0.91821950783E+02  0.10507739903E+03  0.50000000000E+02 0.  0.
<mgrwt>
<rscale>  0 0.51088053E+02</rscale>
<asrwt>0</asrwt>
<pdfrwt beam="1">  1       13 0.10000000E+01 0.51088053E+02</pdfrwt>
<pdfrwt beam="2">  1       22 0.24366301E+00 0.51088053E+02</pdfrwt>
<totfact> 0.30959328E-01</totfact>
</mgrwt>
</event>
<event>
 4    1  0.2486873E+000  0.6623088E+02  0.7957747E-01  0.1373400E+00
         13   -1    0    0    0    0  0.00000000000E+00  0.00000000000E+00  0.99999944188E+02  0.10000000001E+03  0.10566000000E+00 0. -1.
         22   -1    0    0    0    0 -0.00000000000E+00 -0.00000000000E+00 -0.50119000863E+02  0.50119000863E+02  0.00000000000E+00 0.  1.
         13    1    1    2    0    0 -0.21391415216E+02  0.37801275184E+02 -0.25028291790E+02  0.50129388630E+02  0.10566000000E+00 0.  1.
        996    1    1    2    0    0  0.21391415216E+02 -0.37801275184E+02  0.74909235115E+02  0.99989612240E+02  0.50000000000E+02 0.  0.
<mgrwt>
<rscale>  0 0.66230877E+02</rscale>
<asrwt>0</asrwt>
<pdfrwt beam="1">  1       13 0.10000000E+01 0.66230877E+02</pdfrwt>
<pdfrwt beam="2">  1       22 0.50119015E+00 0.66230877E+02</pdfrwt>
<totfact> 0.73544422E-02</totfact>
</mgrwt>
</event>
<event>
 4    1  0.2486873E+000  0.5379849E+02  0.7957747E-01  0.1425868E+00
         13   -1    0    0    0    0  0.00000000000E+00  0.00000000000E+00  0.99999944183E+02  0.10000000000E+03  0.10566000000E+00 0.  1.
         22   -1    0    0    0    0 -0.00000000000E+00 -0.00000000000E+00 -0.26540378308E+02  0.26540378308E+02  0.00000000000E+00 0. -1.
         13    1    1    2    0    0  0.60658627917E+01 -0.18907209731E+02 -0.13693119485E+02  0.24120322479E+02  0.10566000000E+00 0. -1.
        996    1    1    2    0    0 -0.60658627917E+01  0.18907209731E+02  0.87152685360E+02  0.10242005583E+03  0.50000000000E+02 0.  0.
<mgrwt>
<rscale>  0 0.53798488E+02</rscale>
<asrwt>0</asrwt>
<pdfrwt beam="1">  1       13 0.10000000E+01 0.53798488E+02</pdfrwt>
<pdfrwt beam="2">  1       22 0.26540399E+00 0.53798488E+02</pdfrwt>
<totfact> 0.26278401E-01</totfact>
</mgrwt>
</event>
<event>
 4    1  0.2486873E+000  0.6860609E+02  0.7957747E-01  0.1364898E+00
         13   -1    0    0    0    0  0.00000000000E+00  0.00000000000E+00  0.99999944180E+02  0.10000000000E+03  0.10566000000E+00 0.  1.
         22   -1    0    0    0    0 -0.00000000000E+00 -0.00000000000E+00 -0.41152609167E+02  0.41152609167E+02  0.00000000000E+00 0. -1.
         13    1    1    2    0    0 -0.18353474949E+02 -0.43242861081E+02 -0.52422699666E+01  0.47268251878E+02  0.10566000000E+00 0. -1.
        996    1    1    2    0    0  0.18353474949E+02  0.43242861081E+02  0.64089604979E+02  0.93884357289E+02  0.50000000000E+02 0.  0.
<mgrwt>
<rscale>  0 0.68606086E+02</rscale>
<asrwt>0</asrwt>
<pdfrwt beam="1">  1       13 0.10000000E+01 0.68606086E+02</pdfrwt>
<pdfrwt beam="2">  1       22 0.41152626E+00 0.68606086E+02</pdfrwt>
<totfact> 0.11830361E-01</totfact>
</mgrwt>
</event>
<event>
 4    1  0.2486873E+000  0.5646135E+02  0.7957747E-01  0.1413312E+00
         13   -1    0    0    0    0  0.00000000000E+00  0.00000000000E+00  0.99999944191E+02  0.10000000001E+03  0.10566000000E+00 0.  1.
         22   -1    0    0    0    0 -0.00000000000E+00 -0.00000000000E+00 -0.70201135156E+02  0.70201135156E+02  0.00000000000E+00 0. -1.
         13    1    1    2    0    0  0.25170908486E+02 -0.73694644599E+01 -0.59230513058E+02  0.64777685059E+02  0.10566000000E+00 0. -1.
        996    1    1    2    0    0 -0.25170908486E+02  0.73694644599E+01  0.89029322093E+02  0.10542345011E+03  0.50000000000E+02 0.  0.
<mgrwt>
<rscale>  0 0.56461346E+02</rscale>
<asrwt>0</asrwt>
<pdfrwt beam="1">  1       13 0.10000000E+01 0.56461346E+02</pdfrwt>
<pdfrwt beam="2">  1       22 0.70201144E+00 0.56461346E+02</pdfrwt>
<totfact> 0.73611517E-02</totfact>
</mgrwt>
</event>
<event>
 4    1  0.2486873E+000  0.5212253E+02  0.7957747E-01  0.1434218E+00
         13   -1    0    0    0    0  0.00000000000E+00  0.00000000000E+00  0.99999944191E+02  0.10000000001E+03  0.10566000000E+00 0.  1.
         22   -1    0    0    0    0 -0.00000000000E+00 -0.00000000000E+00 -0.87848768938E+02  0.87848768938E+02  0.00000000000E+00 0. -1.
         13    1    1    2    0    0  0.10429279006E+02 -0.10391735281E+02 -0.80342211073E+02  0.81680108146E+02  0.10566000000E+00 0. -1.
        996    1    1    2    0    0 -0.10429279006E+02  0.10391735281E+02  0.92493386325E+02  0.10616866080E+03  0.50000000000E+02 0.  0.
<mgrwt>
<rscale>  0 0.52122529E+02</rscale>
<asrwt>0</asrwt>
<pdfrwt beam="1">  1       13 0.10000000E+01 0.52122529E+02</pdfrwt>
<pdfrwt beam="2">  1       22 0.87848772E+00 0.52122529E+02</pdfrwt>
<totfact> 0.13765987E-02</totfact>
</mgrwt>
</event>
<event>
 4    1  0.2486873E+000  0.5255938E+02  0.7957747E-01  0.1432006E+00
         13   -1    0    0    0    0  0.00000000000E+00  0.00000000000E+00  0.99999944174E+02  0.99999999994E+02  0.10566000000E+00 0. -1.
         22   -1    0    0    0    0 -0.00000000000E+00 -0.00000000000E+00 -0.30886015530E+02  0.30886015530E+02  0.00000000000E+00 0.  1.
         13    1    1    2    0    0  0.15870370617E+02  0.32587586196E+01 -0.21024638669E+02  0.26543073795E+02  0.10566000000E+00 0.  1.
        996    1    1    2    0    0 -0.15870370617E+02 -0.32587586196E+01  0.90138567313E+02  0.10434294173E+03  0.50000000000E+02 0.  0.
<mgrwt>
<rscale>  0 0.52559378E+02</rscale>
<asrwt>0</asrwt>
<pdfrwt beam="1">  1       13 0.10000000E+01 0.52559378E+02</pdfrwt>
<pdfrwt beam="2">  1       22 0.30886035E+00 0.52559378E+02</pdfrwt>
<totfact> 0.19631816E-01</totfact>
</mgrwt>
</event>
<event>
 4    1  0.2486873E+000  0.5305334E+02  0.7957747E-01  0.1429536E+00
         13   -1    0    0    0    0  0.00000000000E+00  0.00000000000E+00  0.99999944186E+02  0.10000000001E+03  0.10566000000E+00 0. -1.
         22   -1    0    0    0    0 -0.00000000000E+00 -0.00000000000E+00 -0.21051157534E+02  0.21051157534E+02  0.00000000000E+00 0.  1.
         13    1    1    2    0    0 -0.74673548075E+01 -0.16090220344E+02 -0.77898858044E+01  0.19373953221E+02  0.10566000000E+00 0.  1.
        996    1    1    2    0    0  0.74673548075E+01  0.16090220344E+02  0.86738672456E+02  0.10167720432E+03  0.50000000000E+02 0.  0.
<mgrwt>
<rscale>  0 0.53053337E+02</rscale>
<asrwt>0</asrwt>
<pdfrwt beam="1">  1       13 0.10000000E+01 0.53053337E+02</pdfrwt>
<pdfrwt beam="2">  1       22 0.21051180E+00 0.53053337E+02</pdfrwt>
<totfact> 0.41219451E-01</totfact>
</mgrwt>
</event>
<event>
 4    1  0.2486873E+000  0.5504416E+02  0.7957747E-01  0.1419890E+00
         13   -1    0    0    0    0  0.00000000000E+00  0.00000000000E+00  0.99999944179E+02  0.10000000000E+03  0.10566000000E+00 0. -1.
         22   -1    0    0    0    0 -0.00000000000E+00 -0.00000000000E+00 -0.28501239059E+02  0.28501239059E+02  0.00000000000E+00 0.  1.
         13    1    1    2    0    0  0.18909465268E+02  0.13126012108E+02 -0.13907287722E+02  0.26893937726E+02  0.10566000000E+00 0.  1.
        996    1    1    2    0    0 -0.18909465268E+02 -0.13126012108E+02  0.85405992843E+02  0.10160730133E+03  0.50000000000E+02 0.  0.
<mgrwt>
<rscale>  0 0.55044165E+02</rscale>
<asrwt>0</asrwt>
<pdfrwt beam="1">  1       13 0.10000000E+01 0.55044165E+02</pdfrwt>
<pdfrwt beam="2">  1       22 0.28501259E+00 0.55044165E+02</pdfrwt>
<totfact> 0.22910974E-01</totfact>
</mgrwt>
</event>
<event>
 4    1  0.2486873E+000  0.5101871E+02  0.7957747E-01  0.1439923E+00
         13   -1    0    0    0    0  0.00000000000E+00  0.00000000000E+00  0.99999944172E+02  0.99999999992E+02  0.10566000000E+00 0.  1.
         22   -1    0    0    0    0 -0.00000000000E+00 -0.00000000000E+00 -0.12318161018E+02  0.12318161018E+02  0.00000000000E+00 0. -1.
         13    1    1    2    0    0  0.67109400491E+01 -0.76073920208E+01 -0.80514012369E+00  0.10176863188E+02  0.10566000000E+00 0. -1.
        996    1    1    2    0    0 -0.67109400491E+01  0.76073920208E+01  0.88486923277E+02  0.10214129782E+03  0.50000000000E+02 0.  0.
<mgrwt>
<rscale>  0 0.51018714E+02</rscale>
<asrwt>0</asrwt>
<pdfrwt beam="1">  1       13 0.10000000E+01 0.51018714E+02</pdfrwt>
<pdfrwt beam="2">  1       22 0.12318185E+00 0.51018714E+02</pdfrwt>
<totfact> 0.10302556E+00</totfact>
</mgrwt>
</event>
<event>
 4    1  0.2486873E+000  0.5678232E+02  0.7957747E-01  0.1411853E+00
         13   -1    0    0    0    0  0.00000000000E+00  0.00000000000E+00  0.99999944184E+02  0.10000000000E+03  0.10566000000E+00 0.  1.
         22   -1    0    0    0    0 -0.00000000000E+00 -0.00000000000E+00 -0.81212686036E+02  0.81212686036E+02  0.00000000000E+00 0. -1.
         13    1    1    2    0    0 -0.21768382658E+02  0.15823071654E+02 -0.70464880118E+02  0.75429056564E+02  0.10566000000E+00 0. -1.
        996    1    1    2    0    0  0.21768382658E+02 -0.15823071654E+02  0.89252138266E+02  0.10578362948E+03  0.50000000000E+02 0.  0.
<mgrwt>
<rscale>  0 0.56782322E+02</rscale>
<asrwt>0</asrwt>
<pdfrwt beam="1">  1       13 0.10000000E+01 0.56782322E+02</pdfrwt>
<pdfrwt beam="2">  1       22 0.81212691E+00 0.56782322E+02</pdfrwt>
<totfact> 0.27585127E-02</totfact>
</mgrwt>
</event>
<event>
 4    1  0.2486873E+000  0.5106154E+02  0.7957747E-01  0.1439699E+00
         13   -1    0    0    0    0  0.00000000000E+00  0.00000000000E+00  0.99999944180E+02  0.10000000000E+03  0.10566000000E+00 0.  1.
         22   -1    0    0    0    0 -0.00000000000E+00 -0.00000000000E+00 -0.14683238932E+02  0.14683238932E+02  0.00000000000E+00 0.  1.
         13    1    1    2    0    0 -0.76789385377E+01 -0.69508885246E+01 -0.45576190716E+01  0.11316536749E+02  0.10566000000E+00 0. -1.
        996    1    1    2    0    0  0.76789385377E+01  0.69508885246E+01  0.89874324320E+02  0.10336670218E+03  0.50000000000E+02 0.  0.
<mgrwt>
<rscale>  0 0.51061541E+02</rscale>
<asrwt>0</asrwt>
<pdfrwt beam="1">  1       13 0.10000000E+01 0.51061541E+02</pdfrwt>
<pdfrwt beam="2">  1       22 0.14683263E+00 0.51061541E+02</pdfrwt>
<totfact> 0.77852410E-01</totfact>
</mgrwt>
</event>
<event>
 4    1  0.2486873E+000  0.5490846E+02  0.7957747E-01  0.1420532E+00
         13   -1    0    0    0    0  0.00000000000E+00  0.00000000000E+00  0.99999944177E+02  0.99999999997E+02  0.10566000000E+00 0. -1.
         22   -1    0    0    0    0 -0.00000000000E+00 -0.00000000000E+00 -0.15277539572E+02  0.15277539572E+02  0.00000000000E+00 0. -1.
         13    1    1    2    0    0  0.38986950574E+01 -0.22354842354E+02  0.18689608985E+02  0.29398153817E+02  0.10566000000E+00 0.  1.
        996    1    1    2    0    0 -0.38986950574E+01  0.22354842354E+02  0.66032795620E+02  0.85879385752E+02  0.50000000000E+02 0.  0.
<mgrwt>
<rscale>  0 0.54908458E+02</rscale>
<asrwt>0</asrwt>
<pdfrwt beam="1">  1       13 0.10000000E+01 0.54908458E+02</pdfrwt>
<pdfrwt beam="2">  1       22 0.15277563E+00 0.54908458E+02</pdfrwt>
<totfact> 0.73439857E-01</totfact>
</mgrwt>
</event>
<event>
 4    1  0.2486873E+000  0.5286487E+02  0.7957747E-01  0.1430475E+00
         13   -1    0    0    0    0  0.00000000000E+00  0.00000000000E+00  0.99999944174E+02  0.99999999994E+02  0.10566000000E+00 0.  1.
         22   -1    0    0    0    0 -0.00000000000E+00 -0.00000000000E+00 -0.17835630088E+02  0.17835630088E+02  0.00000000000E+00 0. -1.
         13    1    1    2    0    0  0.17144930680E+02  0.86354977407E+00 -0.31660707357E+01  0.17456504065E+02  0.10566000000E+00 0. -1.
        996    1    1    2    0    0 -0.17144930680E+02 -0.86354977407E+00  0.85330384821E+02  0.10037912602E+03  0.50000000000E+02 0.  0.
<mgrwt>
<rscale>  0 0.52864869E+02</rscale>
<asrwt>0</asrwt>
<pdfrwt beam="1">  1       13 0.10000000E+01 0.52864869E+02</pdfrwt>
<pdfrwt beam="2">  1       22 0.17835653E+00 0.52864869E+02</pdfrwt>
<totfact> 0.55940698E-01</totfact>
</mgrwt>
</event>
<event>
 4    1  0.2486873E+000  0.7545974E+02  0.7957747E-01  0.1342453E+00
         13   -1    0    0    0    0  0.00000000000E+00  0.00000000000E+00  0.99999944188E+02  0.10000000001E+03  0.10566000000E+00 0. -1.
         22   -1    0    0    0    0 -0.00000000000E+00 -0.00000000000E+00 -0.53540073370E+02  0.53540073370E+02  0.00000000000E+00 0.  1.
         13    1    1    2    0    0 -0.29940109240E+02  0.47934978290E+02 -0.12373205855E+02  0.57855679688E+02  0.10566000000E+00 0.  1.
        996    1    1    2    0    0  0.29940109240E+02 -0.47934978290E+02  0.58833076673E+02  0.95684393690E+02  0.50000000000E+02 0.  0.
<mgrwt>
<rscale>  0 0.75459739E+02</rscale>
<asrwt>0</asrwt>
<pdfrwt beam="1">  1       13 0.10000000E+01 0.75459739E+02</pdfrwt>
<pdfrwt beam="2">  1       22 0.53540086E+00 0.75459739E+02</pdfrwt>
<totfact> 0.62098853E-02</totfact>
</mgrwt>
</event>
<event>
 4    1  0.2486873E+000  0.5101475E+02  0.7957747E-01  0.1439944E+00
         13   -1    0    0    0    0  0.00000000000E+00  0.00000000000E+00  0.99999944185E+02  0.10000000001E+03  0.10566000000E+00 0. -1.
         22   -1    0    0    0    0 -0.00000000000E+00 -0.00000000000E+00 -0.94465177956E+01  0.94465177956E+01  0.00000000000E+00 0. -1.
         13    1    1    2    0    0 -0.52360762314E+01  0.86653215799E+01  0.11088163189E+02  0.15015419385E+02  0.10566000000E+00 0.  1.
        996    1    1    2    0    0  0.52360762314E+01 -0.86653215799E+01  0.79465263201E+02  0.94431098415E+02  0.50000000000E+02 0.  0.
<mgrwt>
<rscale>  0 0.51014746E+02</rscale>
<asrwt>0</asrwt>
<pdfrwt beam="1">  1       13 0.10000000E+01 0.51014746E+02</pdfrwt>
<pdfrwt beam="2">  1       22 0.94465431E-01 0.51014746E+02</pdfrwt>
<totfact> 0.15263489E+00</totfact>
</mgrwt>
</event>
<event>
 4    1  0.2486873E+000  0.5527533E+02  0.7957747E-01  0.1418801E+00
         13   -1    0    0    0    0  0.00000000000E+00  0.00000000000E+00  0.99999944184E+02  0.10000000000E+03  0.10566000000E+00 0.  1.
         22   -1    0    0    0    0 -0.00000000000E+00 -0.00000000000E+00 -0.17381691843E+02  0.17381691843E+02  0.00000000000E+00 0.  1.
         13    1    1    2    0    0  0.17771700075E+02  0.15476717274E+02  0.87865048995E+01  0.25151062274E+02  0.10566000000E+00 0. -1.
        996    1    1    2    0    0 -0.17771700075E+02 -0.15476717274E+02  0.73831747441E+02  0.92230629573E+02  0.50000000000E+02 0.  0.
<mgrwt>
<rscale>  0 0.55275330E+02</rscale>
<asrwt>0</asrwt>
<pdfrwt beam="1">  1       13 0.10000000E+01 0.55275330E+02</pdfrwt>
<pdfrwt beam="2">  1       22 0.17381715E+00 0.55275330E+02</pdfrwt>
<totfact> 0.58824717E-01</totfact>
</mgrwt>
</event>
<event>
 4    1  0.2486873E+000  0.5215095E+02  0.7957747E-01  0.1434074E+00
         13   -1    0    0    0    0  0.00000000000E+00  0.00000000000E+00  0.99999944177E+02  0.99999999998E+02  0.10566000000E+00 0. -1.
         22   -1    0    0    0    0 -0.00000000000E+00 -0.00000000000E+00 -0.42934085367E+02  0.42934085367E+02  0.00000000000E+00 0.  1.
         13    1    1    2    0    0 -0.13525382277E+02  0.60650865911E+01 -0.34504867773E+02  0.37554204894E+02  0.10566000000E+00 0.  1.
        996    1    1    2    0    0  0.13525382277E+02 -0.60650865911E+01  0.91570726584E+02  0.10537988047E+03  0.50000000000E+02 0.  0.
<mgrwt>
<rscale>  0 0.52150947E+02</rscale>
<asrwt>0</asrwt>
<pdfrwt beam="1">  1       13 0.10000000E+01 0.52150947E+02</pdfrwt>
<pdfrwt beam="2">  1       22 0.42934101E+00 0.52150947E+02</pdfrwt>
<totfact> 0.10732146E-01</totfact>
</mgrwt>
</event>
<event>
 4    1  0.2486873E+000  0.5217321E+02  0.7957747E-01  0.1433960E+00
         13   -1    0    0    0    0  0.00000000000E+00  0.00000000000E+00  0.99999944177E+02  0.99999999998E+02  0.10566000000E+00 0.  1.
         22   -1    0    0    0    0 -0.00000000000E+00 -0.00000000000E+00 -0.18587054121E+02  0.18587054121E+02  0.00000000000E+00 0. -1.
         13    1    1    2    0    0  0.14482809218E+02 -0.35059408410E+01 -0.65799141196E+01  0.16289561623E+02  0.10566000000E+00 0. -1.
        996    1    1    2    0    0 -0.14482809218E+02  0.35059408410E+01  0.87992804176E+02  0.10229749250E+03  0.50000000000E+02 0.  0.
<mgrwt>
<rscale>  0 0.52173206E+02</rscale>
<asrwt>0</asrwt>
<pdfrwt beam="1">  1       13 0.10000000E+01 0.52173206E+02</pdfrwt>
<pdfrwt beam="2">  1       22 0.18587077E+00 0.52173206E+02</pdfrwt>
<totfact> 0.51866177E-01</totfact>
</mgrwt>
</event>
<event>
 4    1  0.2486873E+000  0.5180824E+02  0.7957747E-01  0.1435825E+00
         13   -1    0    0    0    0  0.00000000000E+00  0.00000000000E+00  0.99999944180E+02  0.10000000000E+03  0.10566000000E+00 0. -1.
         22   -1    0    0    0    0 -0.00000000000E+00 -0.00000000000E+00 -0.10760922285E+02  0.10760922285E+02  0.00000000000E+00 0. -1.
         13    1    1    2    0    0 -0.62848957762E+00 -0.13553545633E+02  0.14931437109E+02  0.20175544021E+02  0.10566000000E+00 0.  1.
        996    1    1    2    0    0  0.62848957762E+00  0.13553545633E+02  0.74307584786E+02  0.90585378263E+02  0.50000000000E+02 0.  0.
<mgrwt>
<rscale>  0 0.51808239E+02</rscale>
<asrwt>0</asrwt>
<pdfrwt beam="1">  1       13 0.10000000E+01 0.51808239E+02</pdfrwt>
<pdfrwt beam="2">  1       22 0.10760947E+00 0.51808239E+02</pdfrwt>
<totfact> 0.12657631E+00</totfact>
</mgrwt>
</event>
<event>
 4    1  0.2486873E+000  0.5108721E+02  0.7957747E-01  0.1439564E+00
         13   -1    0    0    0    0  0.00000000000E+00  0.00000000000E+00  0.99999944181E+02  0.10000000000E+03  0.10566000000E+00 0. -1.
         22   -1    0    0    0    0 -0.00000000000E+00 -0.00000000000E+00 -0.10607611833E+02  0.10607611833E+02  0.00000000000E+00 0. -1.
         13    1    1    2    0    0  0.80483011601E+01 -0.67177587666E+01  0.42462380721E+01  0.11311283579E+02  0.10566000000E+00 0.  1.
        996    1    1    2    0    0 -0.80483011601E+01  0.67177587666E+01  0.85146094276E+02  0.99296328255E+02  0.50000000000E+02 0.  0.
<mgrwt>
<rscale>  0 0.51087214E+02</rscale>
<asrwt>0</asrwt>
<pdfrwt beam="1">  1       13 0.10000000E+01 0.51087214E+02</pdfrwt>
<pdfrwt beam="2">  1       22 0.10607637E+00 0.51087214E+02</pdfrwt>
<totfact> 0.12906361E+00</totfact>
</mgrwt>
</event>
<event>
 4    1  0.2486873E+000  0.5460973E+02  0.7957747E-01  0.1421954E+00
         13   -1    0    0    0    0  0.00000000000E+00  0.00000000000E+00  0.99999944174E+02  0.99999999994E+02  0.10566000000E+00 0.  1.
         22   -1    0    0    0    0 -0.00000000000E+00 -0.00000000000E+00 -0.34665811976E+02  0.34665811976E+02  0.00000000000E+00 0. -1.
         13    1    1    2    0    0 -0.20552661925E+02  0.77337094101E+01 -0.22371510690E+02  0.31348330547E+02  0.10566000000E+00 0. -1.
        996    1    1    2    0    0  0.20552661925E+02 -0.77337094101E+01  0.87705642888E+02  0.10331748142E+03  0.50000000000E+02 0.  0.
<mgrwt>
<rscale>  0 0.54609726E+02</rscale>
<asrwt>0</asrwt>
<pdfrwt beam="1">  1       13 0.10000000E+01 0.54609726E+02</pdfrwt>
<pdfrwt beam="2">  1       22 0.34665830E+00 0.54609726E+02</pdfrwt>
<totfact> 0.16022349E-01</totfact>
</mgrwt>
</event>
<event>
 4    1  0.2486873E+000  0.5150649E+02  0.7957747E-01  0.1437381E+00
         13   -1    0    0    0    0  0.00000000000E+00  0.00000000000E+00  0.99999944183E+02  0.10000000000E+03  0.10566000000E+00 0.  1.
         22   -1    0    0    0    0 -0.00000000000E+00 -0.00000000000E+00 -0.30898997482E+02  0.30898997482E+02  0.00000000000E+00 0. -1.
         13    1    1    2    0    0 -0.12297666323E+02 -0.12982339201E+01 -0.22577631003E+02  0.25742544436E+02  0.10566000000E+00 0. -1.
        996    1    1    2    0    0  0.12297666323E+02  0.12982339201E+01  0.91678577703E+02  0.10515645305E+03  0.50000000000E+02 0.  0.
<mgrwt>
<rscale>  0 0.51506485E+02</rscale>
<asrwt>0</asrwt>
<pdfrwt beam="1">  1       13 0.10000000E+01 0.51506485E+02</pdfrwt>
<pdfrwt beam="2">  1       22 0.30899017E+00 0.51506485E+02</pdfrwt>
<totfact> 0.19590531E-01</totfact>
</mgrwt>
</event>
<event>
 4    1  0.2486873E+000  0.5132059E+02  0.7957747E-01  0.1438346E+00
         13   -1    0    0    0    0  0.00000000000E+00  0.00000000000E+00  0.99999944175E+02  0.99999999995E+02  0.10566000000E+00 0.  1.
         22   -1    0    0    0    0 -0.00000000000E+00 -0.00000000000E+00 -0.19048700609E+02  0.19048700609E+02  0.00000000000E+00 0. -1.
         13    1    1    2    0    0  0.34991081177E+01 -0.11025376213E+02 -0.95555531383E+01  0.15004080714E+02  0.10566000000E+00 0. -1.
        996    1    1    2    0    0 -0.34991081177E+01  0.11025376213E+02  0.90506796704E+02  0.10404461989E+03  0.50000000000E+02 0.  0.
<mgrwt>
<rscale>  0 0.51320587E+02</rscale>
<asrwt>0</asrwt>
<pdfrwt beam="1">  1       13 0.10000000E+01 0.51320587E+02</pdfrwt>
<pdfrwt beam="2">  1       22 0.19048723E+00 0.51320587E+02</pdfrwt>
<totfact> 0.49517982E-01</totfact>
</mgrwt>
</event>
<event>
 4    1  0.2486873E+000  0.5479379E+02  0.7957747E-01  0.1421077E+00
         13   -1    0    0    0    0  0.00000000000E+00  0.00000000000E+00  0.99999944177E+02  0.99999999997E+02  0.10566000000E+00 0. -1.
         22   -1    0    0    0    0 -0.00000000000E+00 -0.00000000000E+00 -0.34947872427E+02  0.34947872427E+02  0.00000000000E+00 0.  1.
         13    1    1    2    0    0  0.61678159472E+01  0.21548032623E+02 -0.22438544963E+02  0.31715282240E+02  0.10566000000E+00 0.  1.
        996    1    1    2    0    0 -0.61678159472E+01 -0.21548032623E+02  0.87490616713E+02  0.10323259018E+03  0.50000000000E+02 0.  0.
<mgrwt>
<rscale>  0 0.54793792E+02</rscale>
<asrwt>0</asrwt>
<pdfrwt beam="1">  1       13 0.10000000E+01 0.54793792E+02</pdfrwt>
<pdfrwt beam="2">  1       22 0.34947891E+00 0.54793792E+02</pdfrwt>
<totfact> 0.15799859E-01</totfact>
</mgrwt>
</event>
<event>
 4    1  0.2486873E+000  0.5536108E+02  0.7957747E-01  0.1418399E+00
         13   -1    0    0    0    0  0.00000000000E+00  0.00000000000E+00  0.99999944183E+02  0.10000000000E+03  0.10566000000E+00 0.  1.
         22   -1    0    0    0    0 -0.00000000000E+00 -0.00000000000E+00 -0.19425968326E+02  0.19425968326E+02  0.00000000000E+00 0.  1.
         13    1    1    2    0    0  0.66664410718E+01  0.22812436540E+02  0.27578692700E+01  0.23926255545E+02  0.10566000000E+00 0. -1.
        996    1    1    2    0    0 -0.66664410718E+01 -0.22812436540E+02  0.77816106587E+02  0.95499712784E+02  0.50000000000E+02 0.  0.
<mgrwt>
<rscale>  0 0.55361076E+02</rscale>
<asrwt>0</asrwt>
<pdfrwt beam="1">  1       13 0.10000000E+01 0.55361076E+02</pdfrwt>
<pdfrwt beam="2">  1       22 0.19425991E+00 0.55361076E+02</pdfrwt>
<totfact> 0.48107669E-01</totfact>
</mgrwt>
</event>
<event>
 4    1  0.2486873E+000  0.5179711E+02  0.7957747E-01  0.1435883E+00
         13   -1    0    0    0    0  0.00000000000E+00  0.00000000000E+00  0.99999944175E+02  0.99999999996E+02  0.10566000000E+00 0.  1.
         22   -1    0    0    0    0 -0.00000000000E+00 -0.00000000000E+00 -0.14498963139E+02  0.14498963139E+02  0.00000000000E+00 0.  1.
         13    1    1    2    0    0  0.13299097100E+02 -0.24646501819E+01 -0.11203475640E+01  0.13572281565E+02  0.10566000000E+00 0. -1.
        996    1    1    2    0    0 -0.13299097100E+02  0.24646501819E+01  0.86621328600E+02  0.10092668157E+03  0.50000000000E+02 0.  0.
<mgrwt>
<rscale>  0 0.51797109E+02</rscale>
<asrwt>0</asrwt>
<pdfrwt beam="1">  1       13 0.10000000E+01 0.51797109E+02</pdfrwt>
<pdfrwt beam="2">  1       22 0.14498987E+00 0.51797109E+02</pdfrwt>
<totfact> 0.79610524E-01</totfact>
</mgrwt>
</event>
<event>
 4    1  0.2486873E+000  0.5191131E+02  0.7957747E-01  0.1435297E+00
         13   -1    0    0    0    0  0.00000000000E+00  0.00000000000E+00  0.99999944177E+02  0.99999999997E+02  0.10566000000E+00 0.  1.
         22   -1    0    0    0    0 -0.00000000000E+00 -0.00000000000E+00 -0.13807549936E+02  0.13807549936E+02  0.00000000000E+00 0. -1.
         13    1    1    2    0    0 -0.88420440033E+00  0.13928477694E+02  0.93312108194E+00  0.13988073037E+02  0.10566000000E+00 0. -1.
        996    1    1    2    0    0  0.88420440033E+00 -0.13928477694E+02  0.85259273159E+02  0.99819476897E+02  0.50000000000E+02 0.  0.
<mgrwt>
<rscale>  0 0.51911312E+02</rscale>
<asrwt>0</asrwt>
<pdfrwt beam="1">  1       13 0.10000000E+01 0.51911312E+02</pdfrwt>
<pdfrwt beam="2">  1       22 0.13807574E+00 0.51911312E+02</pdfrwt>
<totfact> 0.86219286E-01</totfact>
</mgrwt>
</event>
<event>
 4    1  0.2486873E+000  0.6734944E+02  0.7957747E-01  0.1369346E+00
         13   -1    0    0    0    0  0.00000000000E+00  0.00000000000E+00  0.99999944183E+02  0.10000000000E+03  0.10566000000E+00 0.  1.
         22   -1    0    0    0    0 -0.00000000000E+00 -0.00000000000E+00 -0.38428026720E+02  0.38428026720E+02  0.00000000000E+00 0. -1.
         13    1    1    2    0    0 -0.72437980423E+01  0.44536219054E+02 -0.28726581015E+01  0.45212948879E+02  0.10566000000E+00 0. -1.
        996    1    1    2    0    0  0.72437980423E+01 -0.44536219054E+02  0.64444575565E+02  0.93215077844E+02  0.50000000000E+02 0.  0.
<mgrwt>
<rscale>  0 0.67349443E+02</rscale>
<asrwt>0</asrwt>
<pdfrwt beam="1">  1       13 0.10000000E+01 0.67349443E+02</pdfrwt>
<pdfrwt beam="2">  1       22 0.38428044E+00 0.67349443E+02</pdfrwt>
<totfact> 0.13476350E-01</totfact>
</mgrwt>
</event>
<event>
 4    1  0.2486873E+000  0.5648808E+02  0.7957747E-01  0.1413190E+00
         13   -1    0    0    0    0  0.00000000000E+00  0.00000000000E+00  0.99999944182E+02  0.10000000000E+03  0.10566000000E+00 0.  1.
         22   -1    0    0    0    0 -0.00000000000E+00 -0.00000000000E+00 -0.17699751547E+02  0.17699751547E+02  0.00000000000E+00 0. -1.
         13    1    1    2    0    0  0.54555314694E+01  0.25712649059E+02  0.16752030376E+02  0.31169613906E+02  0.10566000000E+00 0. -1.
        996    1    1    2    0    0 -0.54555314694E+01 -0.25712649059E+02  0.65548162259E+02  0.86530137644E+02  0.50000000000E+02 0.  0.
<mgrwt>
<rscale>  0 0.56488080E+02</rscale>
<asrwt>0</asrwt>
<pdfrwt beam="1">  1       13 0.10000000E+01 0.56488080E+02</pdfrwt>
<pdfrwt beam="2">  1       22 0.17699775E+00 0.56488080E+02</pdfrwt>
<totfact> 0.57080907E-01</totfact>
</mgrwt>
</event>
<event>
 4    1  0.2486873E+000  0.5466404E+02  0.7957747E-01  0.1421694E+00
         13   -1    0    0    0    0  0.00000000000E+00  0.00000000000E+00  0.99999944187E+02  0.10000000001E+03  0.10566000000E+00 0.  1.
         22   -1    0    0    0    0 -0.00000000000E+00 -0.00000000000E+00 -0.29222267543E+02  0.29222267543E+02  0.00000000000E+00 0. -1.
         13    1    1    2    0    0  0.20018667169E+02  0.93493689664E+01 -0.15567531208E+02  0.27028076647E+02  0.10566000000E+00 0. -1.
        996    1    1    2    0    0 -0.20018667169E+02 -0.93493689664E+01  0.86345207852E+02  0.10219419090E+03  0.50000000000E+02 0.  0.
<mgrwt>
<rscale>  0 0.54664044E+02</rscale>
<asrwt>0</asrwt>
<pdfrwt beam="1">  1       13 0.10000000E+01 0.54664044E+02</pdfrwt>
<pdfrwt beam="2">  1       22 0.29222287E+00 0.54664044E+02</pdfrwt>
<totfact> 0.21830551E-01</totfact>
</mgrwt>
</event>
<event>
 4    1  0.2486873E+000  0.8204701E+02  0.7957747E-01  0.1323341E+00
         13   -1    0    0    0    0  0.00000000000E+00  0.00000000000E+00  0.99999944182E+02  0.10000000000E+03  0.10566000000E+00 0.  1.
         22   -1    0    0    0    0 -0.00000000000E+00 -0.00000000000E+00 -0.55942606687E+02  0.55942606687E+02  0.00000000000E+00 0. -1.
         13    1    1    2    0    0  0.77117633224E+01 -0.64592880095E+02  0.54896194834E+01  0.65282911536E+02  0.10566000000E+00 0. -1.
        996    1    1    2    0    0 -0.77117633224E+01  0.64592880095E+02  0.38567718011E+02  0.90659695153E+02  0.50000000000E+02 0.  0.
<mgrwt>
<rscale>  0 0.82047008E+02</rscale>
<asrwt>0</asrwt>
<pdfrwt beam="1">  1       13 0.10000000E+01 0.82047008E+02</pdfrwt>
<pdfrwt beam="2">  1       22 0.55942619E+00 0.82047008E+02</pdfrwt>
<totfact> 0.58902182E-02</totfact>
</mgrwt>
</event>
<event>
 4    1  0.2486873E+000  0.5276060E+02  0.7957747E-01  0.1430996E+00
         13   -1    0    0    0    0  0.00000000000E+00  0.00000000000E+00  0.99999944178E+02  0.99999999998E+02  0.10566000000E+00 0. -1.
         22   -1    0    0    0    0 -0.00000000000E+00 -0.00000000000E+00 -0.20203016024E+02  0.20203016024E+02  0.00000000000E+00 0. -1.
         13    1    1    2    0    0  0.15436440435E+02 -0.67377391295E+01 -0.73119140335E+01  0.18361810171E+02  0.10566000000E+00 0.  1.
        996    1    1    2    0    0 -0.15436440435E+02  0.67377391295E+01  0.87108842188E+02  0.10184120585E+03  0.50000000000E+02 0.  0.
<mgrwt>
<rscale>  0 0.52760599E+02</rscale>
<asrwt>0</asrwt>
<pdfrwt beam="1">  1       13 0.10000000E+01 0.52760599E+02</pdfrwt>
<pdfrwt beam="2">  1       22 0.20203038E+00 0.52760599E+02</pdfrwt>
<totfact> 0.44520784E-01</totfact>
</mgrwt>
</event>
<event>
 4    1  0.2486873E+000  0.5104801E+02  0.7957747E-01  0.1439769E+00
         13   -1    0    0    0    0  0.00000000000E+00  0.00000000000E+00  0.99999944182E+02  0.10000000000E+03  0.10566000000E+00 0.  1.
         22   -1    0    0    0    0 -0.00000000000E+00 -0.00000000000E+00 -0.94062642258E+01  0.94062642258E+01  0.00000000000E+00 0.  1.
         13    1    1    2    0    0 -0.30920882046E+01  0.98151900942E+01  0.15134199988E+02  0.18301752358E+02  0.10566000000E+00 0. -1.
        996    1    1    2    0    0  0.30920882046E+01 -0.98151900942E+01  0.75459479968E+02  0.91104511870E+02  0.50000000000E+02 0.  0.
<mgrwt>
<rscale>  0 0.51048006E+02</rscale>
<asrwt>0</asrwt>
<pdfrwt beam="1">  1       13 0.10000000E+01 0.51048006E+02</pdfrwt>
<pdfrwt beam="2">  1       22 0.94062895E-01 0.51048006E+02</pdfrwt>
<totfact> 0.15357983E+00</totfact>
</mgrwt>
</event>
<event>
 4    1  0.2486873E+000  0.5143673E+02  0.7957747E-01  0.1437743E+00
         13   -1    0    0    0    0  0.00000000000E+00  0.00000000000E+00  0.99999944177E+02  0.99999999997E+02  0.10566000000E+00 0. -1.
         22   -1    0    0    0    0 -0.00000000000E+00 -0.00000000000E+00 -0.10170593170E+02  0.10170593170E+02  0.00000000000E+00 0. -1.
         13    1    1    2    0    0  0.93245597822E+01  0.76674313721E+01  0.21323384260E+02  0.24503771124E+02  0.10566000000E+00 0.  1.
        996    1    1    2    0    0 -0.93245597822E+01 -0.76674313721E+01  0.68505966747E+02  0.85666822043E+02  0.50000000000E+02 0.  0.
<mgrwt>
<rscale>  0 0.51436727E+02</rscale>
<asrwt>0</asrwt>
<pdfrwt beam="1">  1       13 0.10000000E+01 0.51436727E+02</pdfrwt>
<pdfrwt beam="2">  1       22 0.10170618E+00 0.51436727E+02</pdfrwt>
<totfact> 0.13737247E+00</totfact>
</mgrwt>
</event>
<event>
 4    1  0.2486873E+000  0.5158016E+02  0.7957747E-01  0.1437000E+00
         13   -1    0    0    0    0  0.00000000000E+00  0.00000000000E+00  0.99999944179E+02  0.10000000000E+03  0.10566000000E+00 0.  1.
         22   -1    0    0    0    0 -0.00000000000E+00 -0.00000000000E+00 -0.11373427875E+02  0.11373427875E+02  0.00000000000E+00 0.  1.
         13    1    1    2    0    0  0.12299155323E+02  0.30403485268E+01  0.33804529294E+02  0.36100835248E+02  0.10566000000E+00 0. -1.
        996    1    1    2    0    0 -0.12299155323E+02 -0.30403485268E+01  0.54821987011E+02  0.75272592626E+02  0.50000000000E+02 0.  0.
<mgrwt>
<rscale>  0 0.51580160E+02</rscale>
<asrwt>0</asrwt>
<pdfrwt beam="1">  1       13 0.10000000E+01 0.51580160E+02</pdfrwt>
<pdfrwt beam="2">  1       22 0.11373453E+00 0.51580160E+02</pdfrwt>
<totfact> 0.11649091E+00</totfact>
</mgrwt>
</event>
<event>
 4    1  0.2486873E+000  0.5103175E+02  0.7957747E-01  0.1439855E+00
         13   -1    0    0    0    0  0.00000000000E+00  0.00000000000E+00  0.99999944182E+02  0.10000000000E+03  0.10566000000E+00 0.  1.
         22   -1    0    0    0    0 -0.00000000000E+00 -0.00000000000E+00 -0.93765014671E+01  0.93765014671E+01  0.00000000000E+00 0.  1.
         13    1    1    2    0    0  0.91022272936E+01 -0.46248260540E+01  0.15200677430E+02  0.18311507751E+02  0.10566000000E+00 0. -1.
        996    1    1    2    0    0 -0.91022272936E+01  0.46248260540E+01  0.75422765284E+02  0.91064993718E+02  0.50000000000E+02 0.  0.
<mgrwt>
<rscale>  0 0.51031750E+02</rscale>
<asrwt>0</asrwt>
<pdfrwt beam="1">  1       13 0.10000000E+01 0.51031750E+02</pdfrwt>
<pdfrwt beam="2">  1       22 0.93765268E-01 0.51031750E+02</pdfrwt>
<totfact> 0.15426845E+00</totfact>
</mgrwt>
</event>
<event>
 4    1  0.2486873E+000  0.5133763E+02  0.7957747E-01  0.1438257E+00
         13   -1    0    0    0    0  0.00000000000E+00  0.00000000000E+00  0.99999944179E+02  0.10000000000E+03  0.10566000000E+00 0. -1.
         22   -1    0    0    0    0 -0.00000000000E+00 -0.00000000000E+00 -0.11335905840E+02  0.11335905840E+02  0.00000000000E+00 0.  1.
         13    1    1    2    0    0  0.90237359714E+01 -0.73568968501E+01  0.39775272533E+01  0.12303805478E+02  0.10566000000E+00 0.  1.
        996    1    1    2    0    0 -0.90237359714E+01  0.73568968501E+01  0.84686511086E+02  0.99032100362E+02  0.50000000000E+02 0.  0.
<mgrwt>
<rscale>  0 0.51337625E+02</rscale>
<asrwt>0</asrwt>
<pdfrwt beam="1">  1       13 0.10000000E+01 0.51337625E+02</pdfrwt>
<pdfrwt beam="2">  1       22 0.11335931E+00 0.51337625E+02</pdfrwt>
<totfact> 0.11700502E+00</totfact>
</mgrwt>
</event>
<event>
 4    1  0.2486873E+000  0.5119608E+02  0.7957747E-01  0.1438995E+00
         13   -1    0    0    0    0  0.00000000000E+00  0.00000000000E+00  0.99999944171E+02  0.99999999992E+02  0.10566000000E+00 0. -1.
         22   -1    0    0    0    0 -0.00000000000E+00 -0.00000000000E+00 -0.29465172136E+02  0.29465172136E+02  0.00000000000E+00 0.  1.
         13    1    1    2    0    0  0.98956443470E+01 -0.48077719090E+01 -0.21498685330E+02  0.24150426140E+02  0.10566000000E+00 0.  1.
        996    1    1    2    0    0 -0.98956443470E+01  0.48077719090E+01  0.92033457366E+02  0.10531474599E+03  0.50000000000E+02 0.  0.
<mgrwt>
<rscale>  0 0.51196078E+02</rscale>
<asrwt>0</asrwt>
<pdfrwt beam="1">  1       13 0.10000000E+01 0.51196078E+02</pdfrwt>
<pdfrwt beam="2">  1       22 0.29465192E+00 0.51196078E+02</pdfrwt>
<totfact> 0.21391892E-01</totfact>
</mgrwt>
</event>
<event>
 4    1  0.2486873E+000  0.5186974E+02  0.7957747E-01  0.1435510E+00
         13   -1    0    0    0    0  0.00000000000E+00  0.00000000000E+00  0.99999944182E+02  0.10000000000E+03  0.10566000000E+00 0. -1.
         22   -1    0    0    0    0 -0.00000000000E+00 -0.00000000000E+00 -0.13246929291E+02  0.13246929291E+02  0.00000000000E+00 0. -1.
         13    1    1    2    0    0  0.13042283598E+02  0.45131433116E+01  0.20912087265E+01  0.13959009348E+02  0.10566000000E+00 0.  1.
        996    1    1    2    0    0 -0.13042283598E+02 -0.45131433116E+01  0.84661806165E+02  0.99287919945E+02  0.50000000000E+02 0.  0.
<mgrwt>
<rscale>  0 0.51869737E+02</rscale>
<asrwt>0</asrwt>
<pdfrwt beam="1">  1       13 0.10000000E+01 0.51869737E+02</pdfrwt>
<pdfrwt beam="2">  1       22 0.13246954E+00 0.51869737E+02</pdfrwt>
<totfact> 0.92118418E-01</totfact>
</mgrwt>
</event>
<event>
 4    1  0.2486873E+000  0.5715403E+02  0.7957747E-01  0.1410178E+00
         13   -1    0    0    0    0  0.00000000000E+00  0.00000000000E+00  0.99999944179E+02  0.10000000000E+03  0.10566000000E+00 0. -1.
         22   -1    0    0    0    0 -0.00000000000E+00 -0.00000000000E+00 -0.82976071892E+02  0.82976071892E+02  0.00000000000E+00 0.  1.
         13    1    1    2    0    0 -0.52200417083E+00  0.27682313536E+02 -0.72025081967E+02  0.77163505412E+02  0.10566000000E+00 0.  1.
        996    1    1    2    0    0  0.52200417083E+00 -0.27682313536E+02  0.89048954255E+02  0.10581256648E+03  0.50000000000E+02 0.  0.
<mgrwt>
<rscale>  0 0.57154028E+02</rscale>
<asrwt>0</asrwt>
<pdfrwt beam="1">  1       13 0.10000000E+01 0.57154028E+02</pdfrwt>
<pdfrwt beam="2">  1       22 0.82976077E+00 0.57154028E+02</pdfrwt>
<totfact> 0.23309545E-02</totfact>
</mgrwt>
</event>
<event>
 4    1  0.2486873E+000  0.5745784E+02  0.7957747E-01  0.1408821E+00
         13   -1    0    0    0    0  0.00000000000E+00  0.00000000000E+00  0.99999944185E+02  0.10000000001E+03  0.10566000000E+00 0. -1.
         22   -1    0    0    0    0 -0.00000000000E+00 -0.00000000000E+00 -0.19415470313E+02  0.19415470313E+02  0.00000000000E+00 0.  1.
         13    1    1    2    0    0  0.25215645695E+02 -0.12867594411E+02  0.14372065963E+02  0.31748562453E+02  0.10566000000E+00 0.  1.
        996    1    1    2    0    0 -0.25215645695E+02  0.12867594411E+02  0.66212407908E+02  0.87666907866E+02  0.50000000000E+02 0.  0.
<mgrwt>
<rscale>  0 0.57457843E+02</rscale>
<asrwt>0</asrwt>
<pdfrwt beam="1">  1       13 0.10000000E+01 0.57457843E+02</pdfrwt>
<pdfrwt beam="2">  1       22 0.19415493E+00 0.57457843E+02</pdfrwt>
<totfact> 0.48324493E-01</totfact>
</mgrwt>
</event>
<event>
 4    1  0.2486873E+000  0.5116704E+02  0.7957747E-01  0.1439147E+00
         13   -1    0    0    0    0  0.00000000000E+00  0.00000000000E+00  0.99999944176E+02  0.99999999996E+02  0.10566000000E+00 0. -1.
         22   -1    0    0    0    0 -0.00000000000E+00 -0.00000000000E+00 -0.14938564300E+02  0.14938564300E+02  0.00000000000E+00 0. -1.
         13    1    1    2    0    0 -0.80953311900E+01 -0.72478694181E+01 -0.45241987571E+01  0.11770536802E+02  0.10566000000E+00 0.  1.
        996    1    1    2    0    0  0.80953311900E+01  0.72478694181E+01  0.89585578632E+02  0.10316802749E+03  0.50000000000E+02 0.  0.
<mgrwt>
<rscale>  0 0.51167040E+02</rscale>
<asrwt>0</asrwt>
<pdfrwt beam="1">  1       13 0.10000000E+01 0.51167040E+02</pdfrwt>
<pdfrwt beam="2">  1       22 0.14938588E+00 0.51167040E+02</pdfrwt>
<totfact> 0.75678070E-01</totfact>
</mgrwt>
</event>
<event>
 4    1  0.2486873E+000  0.5330443E+02  0.7957747E-01  0.1428292E+00
         13   -1    0    0    0    0  0.00000000000E+00  0.00000000000E+00  0.99999944173E+02  0.99999999994E+02  0.10566000000E+00 0.  1.
         22   -1    0    0    0    0 -0.00000000000E+00 -0.00000000000E+00 -0.13317648282E+02  0.13317648282E+02  0.00000000000E+00 0.  1.
         13    1    1    2    0    0 -0.13429587197E+02  0.12688920022E+02  0.13986894917E+02  0.23173409267E+02  0.10566000000E+00 0. -1.
        996    1    1    2    0    0  0.13429587197E+02 -0.12688920022E+02  0.72695400975E+02  0.90144239009E+02  0.50000000000E+02 0.  0.
<mgrwt>
<rscale>  0 0.53304432E+02</rscale>
<asrwt>0</asrwt>
<pdfrwt beam="1">  1       13 0.10000000E+01 0.53304432E+02</pdfrwt>
<pdfrwt beam="2">  1       22 0.13317672E+00 0.53304432E+02</pdfrwt>
<totfact> 0.91621098E-01</totfact>
</mgrwt>
</event>
<event>
 4    1  0.2486873E+000  0.5972258E+02  0.7957747E-01  0.1399000E+00
         13   -1    0    0    0    0  0.00000000000E+00  0.00000000000E+00  0.99999944174E+02  0.99999999994E+02  0.10566000000E+00 0. -1.
         22   -1    0    0    0    0 -0.00000000000E+00 -0.00000000000E+00 -0.26748608228E+02  0.26748608228E+02  0.00000000000E+00 0.  1.
         13    1    1    2    0    0  0.29199399194E+02 -0.14634966253E+02  0.55583647998E+00  0.32666607855E+02  0.10566000000E+00 0.  1.
        996    1    1    2    0    0 -0.29199399194E+02  0.14634966253E+02  0.72695499466E+02  0.94082000367E+02  0.50000000000E+02 0.  0.
<mgrwt>
<rscale>  0 0.59722585E+02</rscale>
<asrwt>0</asrwt>
<pdfrwt beam="1">  1       13 0.10000000E+01 0.59722585E+02</pdfrwt>
<pdfrwt beam="2">  1       22 0.26748629E+00 0.59722585E+02</pdfrwt>
<totfact> 0.26087048E-01</totfact>
</mgrwt>
</event>
<event>
 4    1  0.2486873E+000  0.6931076E+02  0.7957747E-01  0.1362453E+00
         13   -1    0    0    0    0  0.00000000000E+00  0.00000000000E+00  0.99999944180E+02  0.10000000000E+03  0.10566000000E+00 0.  1.
         22   -1    0    0    0    0 -0.00000000000E+00 -0.00000000000E+00 -0.35461305015E+02  0.35461305015E+02  0.00000000000E+00 0. -1.
         13    1    1    2    0    0  0.26253161042E+02  0.40183982592E+02  0.38085846130E+02  0.61274168792E+02  0.10566000000E+00 0. -1.
        996    1    1    2    0    0 -0.26253161042E+02 -0.40183982592E+02  0.26452793034E+02  0.74187136223E+02  0.50000000000E+02 0.  0.
<mgrwt>
<rscale>  0 0.69310756E+02</rscale>
<asrwt>0</asrwt>
<pdfrwt beam="1">  1       13 0.10000000E+01 0.69310756E+02</pdfrwt>
<pdfrwt beam="2">  1       22 0.35461323E+00 0.69310756E+02</pdfrwt>
<totfact> 0.15592426E-01</totfact>
</mgrwt>
</event>
<event>
 4    1  0.2486873E+000  0.5341784E+02  0.7957747E-01  0.1427733E+00
         13   -1    0    0    0    0  0.00000000000E+00  0.00000000000E+00  0.99999944175E+02  0.99999999995E+02  0.10566000000E+00 0. -1.
         22   -1    0    0    0    0 -0.00000000000E+00 -0.00000000000E+00 -0.24797026959E+02  0.24797026959E+02  0.00000000000E+00 0.  1.
         13    1    1    2    0    0  0.18770074835E+02  0.10722634702E+01 -0.12164604039E+02  0.22393173373E+02  0.10566000000E+00 0.  1.
        996    1    1    2    0    0 -0.18770074835E+02 -0.10722634702E+01  0.87367521254E+02  0.10240385358E+03  0.50000000000E+02 0.  0.
<mgrwt>
<rscale>  0 0.53417838E+02</rscale>
<asrwt>0</asrwt>
<pdfrwt beam="1">  1       13 0.10000000E+01 0.53417838E+02</pdfrwt>
<pdfrwt beam="2">  1       22 0.24797048E+00 0.53417838E+02</pdfrwt>
<totfact> 0.30021974E-01</totfact>
</mgrwt>
</event>
<event>
 4    1  0.2486873E+000  0.5273439E+02  0.7957747E-01  0.1431127E+00
         13   -1    0    0    0    0  0.00000000000E+00  0.00000000000E+00  0.99999944183E+02  0.10000000000E+03  0.10566000000E+00 0.  1.
         22   -1    0    0    0    0 -0.00000000000E+00 -0.00000000000E+00 -0.16552096011E+02  0.16552096011E+02  0.00000000000E+00 0. -1.
         13    1    1    2    0    0  0.21550496472E+01  0.16621437029E+02 -0.12193203552E+01  0.16805187118E+02  0.10566000000E+00 0. -1.
        996    1    1    2    0    0 -0.21550496472E+01 -0.16621437029E+02  0.84667168527E+02  0.99746908896E+02  0.50000000000E+02 0.  0.
<mgrwt>
<rscale>  0 0.52734395E+02</rscale>
<asrwt>0</asrwt>
<pdfrwt beam="1">  1       13 0.10000000E+01 0.52734395E+02</pdfrwt>
<pdfrwt beam="2">  1       22 0.16552119E+00 0.52734395E+02</pdfrwt>
<totfact> 0.63785504E-01</totfact>
</mgrwt>
</event>
<event>
 4    1  0.2486873E+000  0.5428476E+02  0.7957747E-01  0.1423512E+00
         13   -1    0    0    0    0  0.00000000000E+00  0.00000000000E+00  0.99999944174E+02  0.99999999995E+02  0.10566000000E+00 0.  1.
         22   -1    0    0    0    0 -0.00000000000E+00 -0.00000000000E+00 -0.31006012078E+02  0.31006012078E+02  0.00000000000E+00 0. -1.
         13    1    1    2    0    0 -0.37519936155E+01  0.20802819898E+02 -0.18466202237E+02  0.28068604541E+02  0.10566000000E+00 0. -1.
        996    1    1    2    0    0  0.37519936155E+01 -0.20802819898E+02  0.87460134333E+02  0.10293740753E+03  0.50000000000E+02 0.  0.
<mgrwt>
<rscale>  0 0.54284756E+02</rscale>
<asrwt>0</asrwt>
<pdfrwt beam="1">  1       13 0.10000000E+01 0.54284756E+02</pdfrwt>
<pdfrwt beam="2">  1       22 0.31006031E+00 0.54284756E+02</pdfrwt>
<totfact> 0.19534310E-01</totfact>
</mgrwt>
</event>
<event>
 4    1  0.2486873E+000  0.5457421E+02  0.7957747E-01  0.1422123E+00
         13   -1    0    0    0    0  0.00000000000E+00  0.00000000000E+00  0.99999944180E+02  0.10000000000E+03  0.10566000000E+00 0.  1.
         22   -1    0    0    0    0 -0.00000000000E+00 -0.00000000000E+00 -0.15243790192E+02  0.15243790192E+02  0.00000000000E+00 0.  1.
         13    1    1    2    0    0  0.19805476229E+02  0.92783125594E+01  0.14331853581E+02  0.26148750711E+02  0.10566000000E+00 0. -1.
        996    1    1    2    0    0 -0.19805476229E+02 -0.92783125594E+01  0.70424300406E+02  0.89095039482E+02  0.50000000000E+02 0.  0.
<mgrwt>
<rscale>  0 0.54574206E+02</rscale>
<asrwt>0</asrwt>
<pdfrwt beam="1">  1       13 0.10000000E+01 0.54574206E+02</pdfrwt>
<pdfrwt beam="2">  1       22 0.15243814E+00 0.54574206E+02</pdfrwt>
<totfact> 0.73665791E-01</totfact>
</mgrwt>
</event>
<event>
 4    1  0.2486873E+000  0.6415645E+02  0.7957747E-01  0.1381173E+00
         13   -1    0    0    0    0  0.00000000000E+00  0.00000000000E+00  0.99999944185E+02  0.10000000000E+03  0.10566000000E+00 0. -1.
         22   -1    0    0    0    0 -0.00000000000E+00 -0.00000000000E+00 -0.41347566999E+02  0.41347566999E+02  0.00000000000E+00 0.  1.
         13    1    1    2    0    0  0.29043273312E+02 -0.27794571792E+02 -0.15686396845E+02  0.43152336620E+02  0.10566000000E+00 0.  1.
        996    1    1    2    0    0 -0.29043273312E+02  0.27794571792E+02  0.74338774030E+02  0.98195230384E+02  0.50000000000E+02 0.  0.
<mgrwt>
<rscale>  0 0.64156449E+02</rscale>
<asrwt>0</asrwt>
<pdfrwt beam="1">  1       13 0.10000000E+01 0.64156449E+02</pdfrwt>
<pdfrwt beam="2">  1       22 0.41347583E+00 0.64156449E+02</pdfrwt>
<totfact> 0.11688937E-01</totfact>
</mgrwt>
</event>
<event>
 4    1  0.2486873E+000  0.5342148E+02  0.7957747E-01  0.1427715E+00
         13   -1    0    0    0    0  0.00000000000E+00  0.00000000000E+00  0.99999944179E+02  0.99999999999E+02  0.10566000000E+00 0.  1.
         22   -1    0    0    0    0 -0.00000000000E+00 -0.00000000000E+00 -0.15737723187E+02  0.15737723187E+02  0.00000000000E+00 0. -1.
         13    1    1    2    0    0  0.48096451329E+01  0.18185772756E+02  0.38556771686E+01  0.19202406816E+02  0.10566000000E+00 0. -1.
        996    1    1    2    0    0 -0.48096451329E+01 -0.18185772756E+02  0.80406543824E+02  0.96535316370E+02  0.50000000000E+02 0.  0.
<mgrwt>
<rscale>  0 0.53421485E+02</rscale>
<asrwt>0</asrwt>
<pdfrwt beam="1">  1       13 0.10000000E+01 0.53421485E+02</pdfrwt>
<pdfrwt beam="2">  1       22 0.15737747E+00 0.53421485E+02</pdfrwt>
<totfact> 0.69648558E-01</totfact>
</mgrwt>
</event>
<event>
 4    1  0.2486873E+000  0.5820615E+02  0.7957747E-01  0.1405518E+00
         13   -1    0    0    0    0  0.00000000000E+00  0.00000000000E+00  0.99999944176E+02  0.99999999997E+02  0.10566000000E+00 0. -1.
         22   -1    0    0    0    0 -0.00000000000E+00 -0.00000000000E+00 -0.37385712716E+02  0.37385712716E+02  0.00000000000E+00 0.  1.
         13    1    1    2    0    0 -0.57929299905E+01  0.29230093203E+02 -0.20317578570E+02  0.36066210634E+02  0.10566000000E+00 0.  1.
        996    1    1    2    0    0  0.57929299905E+01 -0.29230093203E+02  0.82931810031E+02  0.10131950208E+03  0.50000000000E+02 0.  0.
<mgrwt>
<rscale>  0 0.58206154E+02</rscale>
<asrwt>0</asrwt>
<pdfrwt beam="1">  1       13 0.10000000E+01 0.58206154E+02</pdfrwt>
<pdfrwt beam="2">  1       22 0.37385730E+00 0.58206154E+02</pdfrwt>
<totfact> 0.14071653E-01</totfact>
</mgrwt>
</event>
<event>
 4    1  0.2486873E+000  0.5101329E+02  0.7957747E-01  0.1439952E+00
         13   -1    0    0    0    0  0.00000000000E+00  0.00000000000E+00  0.99999944178E+02  0.99999999999E+02  0.10566000000E+00 0. -1.
         22   -1    0    0    0    0 -0.00000000000E+00 -0.00000000000E+00 -0.94074747446E+01  0.94074747446E+01  0.00000000000E+00 0. -1.
         13    1    1    2    0    0  0.47881270765E+01 -0.89123083700E+01  0.18593088713E+02  0.21167652522E+02  0.10566000000E+00 0.  1.
        996    1    1    2    0    0 -0.47881270765E+01  0.89123083700E+01  0.71999380721E+02  0.88239822221E+02  0.50000000000E+02 0.  0.
<mgrwt>
<rscale>  0 0.51013287E+02</rscale>
<asrwt>0</asrwt>
<pdfrwt beam="1">  1       13 0.10000000E+01 0.51013287E+02</pdfrwt>
<pdfrwt beam="2">  1       22 0.94075000E-01 0.51013287E+02</pdfrwt>
<totfact> 0.15353834E+00</totfact>
</mgrwt>
</event>
<event>
 4    1  0.2486873E+000  0.5270916E+02  0.7957747E-01  0.1431254E+00
         13   -1    0    0    0    0  0.00000000000E+00  0.00000000000E+00  0.99999944174E+02  0.99999999995E+02  0.10566000000E+00 0.  1.
         22   -1    0    0    0    0 -0.00000000000E+00 -0.00000000000E+00 -0.34211931372E+02  0.34211931372E+02  0.00000000000E+00 0. -1.
         13    1    1    2    0    0  0.16161755486E+02  0.41295597628E+01 -0.24514578846E+02  0.29651835428E+02  0.10566000000E+00 0. -1.
        996    1    1    2    0    0 -0.16161755486E+02 -0.41295597628E+01  0.90302591648E+02  0.10456009594E+03  0.50000000000E+02 0.  0.
<mgrwt>
<rscale>  0 0.52709161E+02</rscale>
<asrwt>0</asrwt>
<pdfrwt beam="1">  1       13 0.10000000E+01 0.52709161E+02</pdfrwt>
<pdfrwt beam="2">  1       22 0.34211950E+00 0.52709161E+02</pdfrwt>
<totfact> 0.16363554E-01</totfact>
</mgrwt>
</event>
<event>
 4    1  0.2486873E+000  0.5747443E+02  0.7957747E-01  0.1408747E+00
         13   -1    0    0    0    0  0.00000000000E+00  0.00000000000E+00  0.99999944170E+02  0.99999999990E+02  0.10566000000E+00 0.  1.
         22   -1    0    0    0    0 -0.00000000000E+00 -0.00000000000E+00 -0.26100698635E+02  0.26100698635E+02  0.00000000000E+00 0. -1.
         13    1    1    2    0    0 -0.78555245834E+01  0.27232351285E+02 -0.46995052056E+01  0.28729892729E+02  0.10566000000E+00 0. -1.
        996    1    1    2    0    0  0.78555245834E+01 -0.27232351285E+02  0.78598750740E+02  0.97370805896E+02  0.50000000000E+02 0.  0.
<mgrwt>
<rscale>  0 0.57474431E+02</rscale>
<asrwt>0</asrwt>
<pdfrwt beam="1">  1       13 0.10000000E+01 0.57474431E+02</pdfrwt>
<pdfrwt beam="2">  1       22 0.26100719E+00 0.57474431E+02</pdfrwt>
<totfact> 0.27297346E-01</totfact>
</mgrwt>
</event>
<event>
 4    1  0.2486873E+000  0.5135249E+02  0.7957747E-01  0.1438180E+00
         13   -1    0    0    0    0  0.00000000000E+00  0.00000000000E+00  0.99999944183E+02  0.10000000000E+03  0.10566000000E+00 0. -1.
         22   -1    0    0    0    0 -0.00000000000E+00 -0.00000000000E+00 -0.10224258441E+02  0.10224258441E+02  0.00000000000E+00 0.  1.
         13    1    1    2    0    0 -0.11630775022E+02  0.13429595143E+01  0.10259495112E+02  0.15567494078E+02  0.10566000000E+00 0.  1.
        996    1    1    2    0    0  0.11630775022E+02 -0.13429595143E+01  0.79516190630E+02  0.94656764366E+02  0.50000000000E+02 0.  0.
<mgrwt>
<rscale>  0 0.51352492E+02</rscale>
<asrwt>0</asrwt>
<pdfrwt beam="1">  1       13 0.10000000E+01 0.51352492E+02</pdfrwt>
<pdfrwt beam="2">  1       22 0.10224284E+00 0.51352492E+02</pdfrwt>
<totfact> 0.13629642E+00</totfact>
</mgrwt>
</event>
<event>
 4    1  0.2486873E+000  0.5110424E+02  0.7957747E-01  0.1439475E+00
         13   -1    0    0    0    0  0.00000000000E+00  0.00000000000E+00  0.99999944184E+02  0.10000000000E+03  0.10566000000E+00 0. -1.
         22   -1    0    0    0    0 -0.00000000000E+00 -0.00000000000E+00 -0.34350063021E+02  0.34350063021E+02  0.00000000000E+00 0.  1.
         13    1    1    2    0    0 -0.57848186711E+01 -0.88418749868E+01 -0.26748926207E+02  0.28760373739E+02  0.10566000000E+00 0.  1.
        996    1    1    2    0    0  0.57848186711E+01  0.88418749868E+01  0.92398807369E+02  0.10558968929E+03  0.50000000000E+02 0.  0.
<mgrwt>
<rscale>  0 0.51104235E+02</rscale>
<asrwt>0</asrwt>
<pdfrwt beam="1">  1       13 0.10000000E+01 0.51104235E+02</pdfrwt>
<pdfrwt beam="2">  1       22 0.34350081E+00 0.51104235E+02</pdfrwt>
<totfact> 0.16220698E-01</totfact>
</mgrwt>
</event>
<event>
 4    1  0.2486873E+000  0.5100032E+02  0.7957747E-01  0.1440020E+00
         13   -1    0    0    0    0  0.00000000000E+00  0.00000000000E+00  0.99999944178E+02  0.99999999998E+02  0.10566000000E+00 0.  1.
         22   -1    0    0    0    0 -0.00000000000E+00 -0.00000000000E+00 -0.14409719332E+02  0.14409719332E+02  0.00000000000E+00 0.  1.
         13    1    1    2    0    0 -0.14936944762E+01  0.99398916958E+01 -0.43996577014E+01  0.10972726281E+02  0.10566000000E+00 0. -1.
        996    1    1    2    0    0  0.14936944762E+01 -0.99398916958E+01  0.89989882547E+02  0.10343699305E+03  0.50000000000E+02 0.  0.
<mgrwt>
<rscale>  0 0.51000319E+02</rscale>
<asrwt>0</asrwt>
<pdfrwt beam="1">  1       13 0.10000000E+01 0.51000319E+02</pdfrwt>
<pdfrwt beam="2">  1       22 0.14409743E+00 0.51000319E+02</pdfrwt>
<totfact> 0.80286450E-01</totfact>
</mgrwt>
</event>
<event>
 4    1  0.2486873E+000  0.5279048E+02  0.7957747E-01  0.1430846E+00
         13   -1    0    0    0    0  0.00000000000E+00  0.00000000000E+00  0.99999944185E+02  0.10000000000E+03  0.10566000000E+00 0.  1.
         22   -1    0    0    0    0 -0.00000000000E+00 -0.00000000000E+00 -0.21821391160E+02  0.21821391160E+02  0.00000000000E+00 0. -1.
         13    1    1    2    0    0  0.14577718660E+02  0.86211585792E+01 -0.95431471534E+01  0.19440089460E+02  0.10566000000E+00 0. -1.
        996    1    1    2    0    0 -0.14577718660E+02 -0.86211585792E+01  0.87721700178E+02  0.10238130170E+03  0.50000000000E+02 0.  0.
<mgrwt>
<rscale>  0 0.52790475E+02</rscale>
<asrwt>0</asrwt>
<pdfrwt beam="1">  1       13 0.10000000E+01 0.52790475E+02</pdfrwt>
<pdfrwt beam="2">  1       22 0.21821413E+00 0.52790475E+02</pdfrwt>
<totfact> 0.38469436E-01</totfact>
</mgrwt>
</event>
<event>
 4    1  0.2486873E+000  0.5349746E+02  0.7957747E-01  0.1427341E+00
         13   -1    0    0    0    0  0.00000000000E+00  0.00000000000E+00  0.99999944182E+02  0.10000000000E+03  0.10566000000E+00 0. -1.
         22   -1    0    0    0    0 -0.00000000000E+00 -0.00000000000E+00 -0.15707990900E+02  0.15707990900E+02  0.00000000000E+00 0.  1.
         13    1    1    2    0    0 -0.13612925590E+02 -0.13291602118E+02  0.43498436358E+01  0.19516934536E+02  0.10566000000E+00 0.  1.
        996    1    1    2    0    0  0.13612925590E+02  0.13291602118E+02  0.79942109646E+02  0.96191056365E+02  0.50000000000E+02 0.  0.
<mgrwt>
<rscale>  0 0.53497462E+02</rscale>
<asrwt>0</asrwt>
<pdfrwt beam="1">  1       13 0.10000000E+01 0.53497462E+02</pdfrwt>
<pdfrwt beam="2">  1       22 0.15708014E+00 0.53497462E+02</pdfrwt>
<totfact> 0.69882970E-01</totfact>
</mgrwt>
</event>
<event>
 4    1  0.2486873E+000  0.5490029E+02  0.7957747E-01  0.1420571E+00
         13   -1    0    0    0    0  0.00000000000E+00  0.00000000000E+00  0.99999944185E+02  0.10000000000E+03  0.10566000000E+00 0. -1.
         22   -1    0    0    0    0 -0.00000000000E+00 -0.00000000000E+00 -0.42730012949E+02  0.42730012949E+02  0.00000000000E+00 0. -1.
         13    1    1    2    0    0  0.16428223995E+02  0.15625478889E+02 -0.31225316655E+02  0.38588517702E+02  0.10566000000E+00 0.  1.
        996    1    1    2    0    0 -0.16428223995E+02 -0.15625478889E+02  0.88495247891E+02  0.10414149525E+03  0.50000000000E+02 0.  0.
<mgrwt>
<rscale>  0 0.54900293E+02</rscale>
<asrwt>0</asrwt>
<pdfrwt beam="1">  1       13 0.10000000E+01 0.54900293E+02</pdfrwt>
<pdfrwt beam="2">  1       22 0.42730029E+00 0.54900293E+02</pdfrwt>
<totfact> 0.10860676E-01</totfact>
</mgrwt>
</event>
<event>
 4    1  0.2486873E+000  0.5169213E+02  0.7957747E-01  0.1436423E+00
         13   -1    0    0    0    0  0.00000000000E+00  0.00000000000E+00  0.99999944182E+02  0.10000000000E+03  0.10566000000E+00 0. -1.
         22   -1    0    0    0    0 -0.00000000000E+00 -0.00000000000E+00 -0.13252500428E+02  0.13252500428E+02  0.00000000000E+00 0.  1.
         13    1    1    2    0    0 -0.12754269736E+02 -0.30666784038E+01  0.10348885662E+01  0.13158954035E+02  0.10566000000E+00 0.  1.
        996    1    1    2    0    0  0.12754269736E+02  0.30666784038E+01  0.85712555188E+02  0.10009354639E+03  0.50000000000E+02 0.  0.
<mgrwt>
<rscale>  0 0.51692126E+02</rscale>
<asrwt>0</asrwt>
<pdfrwt beam="1">  1       13 0.10000000E+01 0.51692126E+02</pdfrwt>
<pdfrwt beam="2">  1       22 0.13252525E+00 0.51692126E+02</pdfrwt>
<totfact> 0.92021709E-01</totfact>
</mgrwt>
</event>
<event>
 4    1  0.2486873E+000  0.6135215E+02  0.7957747E-01  0.1392243E+00
         13   -1    0    0    0    0  0.00000000000E+00  0.00000000000E+00  0.99999944172E+02  0.99999999992E+02  0.10566000000E+00 0.  1.
         22   -1    0    0    0    0 -0.00000000000E+00 -0.00000000000E+00 -0.32302416473E+02  0.32302416473E+02  0.00000000000E+00 0. -1.
         13    1    1    2    0    0  0.35191313525E+02  0.50654028321E+01 -0.63750368105E+01  0.36121172626E+02  0.10566000000E+00 0. -1.
        996    1    1    2    0    0 -0.35191313525E+02 -0.50654028321E+01  0.74072564510E+02  0.96181243840E+02  0.50000000000E+02 0.  0.
<mgrwt>
<rscale>  0 0.61352154E+02</rscale>
<asrwt>0</asrwt>
<pdfrwt beam="1">  1       13 0.10000000E+01 0.61352154E+02</pdfrwt>
<pdfrwt beam="2">  1       22 0.32302435E+00 0.61352154E+02</pdfrwt>
<totfact> 0.18276585E-01</totfact>
</mgrwt>
</event>
<event>
 4    1  0.2486873E+000  0.6610830E+02  0.7957747E-01  0.1373850E+00
         13   -1    0    0    0    0  0.00000000000E+00  0.00000000000E+00  0.99999944169E+02  0.99999999989E+02  0.10566000000E+00 0.  1.
         22   -1    0    0    0    0 -0.00000000000E+00 -0.00000000000E+00 -0.32044230151E+02  0.32044230151E+02  0.00000000000E+00 0. -1.
         13    1    1    2    0    0 -0.35094901764E+02 -0.25271630961E+02  0.10610528842E+02  0.44529787195E+02  0.10566000000E+00 0. -1.
        996    1    1    2    0    0  0.35094901764E+02  0.25271630961E+02  0.57345185176E+02  0.87514442946E+02  0.50000000000E+02 0.  0.
<mgrwt>
<rscale>  0 0.66108301E+02</rscale>
<asrwt>0</asrwt>
<pdfrwt beam="1">  1       13 0.10000000E+01 0.66108301E+02</pdfrwt>
<pdfrwt beam="2">  1       22 0.32044249E+00 0.66108301E+02</pdfrwt>
<totfact> 0.18628767E-01</totfact>
</mgrwt>
</event>
<event>
 4    1  0.2486873E+000  0.5159383E+02  0.7957747E-01  0.1436930E+00
         13   -1    0    0    0    0  0.00000000000E+00  0.00000000000E+00  0.99999944178E+02  0.99999999998E+02  0.10566000000E+00 0.  1.
         22   -1    0    0    0    0 -0.00000000000E+00 -0.00000000000E+00 -0.11788515848E+02  0.11788515848E+02  0.00000000000E+00 0. -1.
         13    1    1    2    0    0 -0.14361660185E+01 -0.12643585499E+02  0.45830729280E+01  0.13525477758E+02  0.10566000000E+00 0. -1.
        996    1    1    2    0    0  0.14361660185E+01  0.12643585499E+02  0.83628355402E+02  0.98263038088E+02  0.50000000000E+02 0.  0.
<mgrwt>
<rscale>  0 0.51593825E+02</rscale>
<asrwt>0</asrwt>
<pdfrwt beam="1">  1       13 0.10000000E+01 0.51593825E+02</pdfrwt>
<pdfrwt beam="2">  1       22 0.11788540E+00 0.51593825E+02</pdfrwt>
<totfact> 0.11035075E+00</totfact>
</mgrwt>
</event>
<event>
 4    1  0.2486873E+000  0.5130118E+02  0.7957747E-01  0.1438447E+00
         13   -1    0    0    0    0  0.00000000000E+00  0.00000000000E+00  0.99999944177E+02  0.99999999997E+02  0.10566000000E+00 0.  1.
         22   -1    0    0    0    0 -0.00000000000E+00 -0.00000000000E+00 -0.20632035120E+02  0.20632035120E+02  0.00000000000E+00 0. -1.
         13    1    1    2    0    0  0.71835507659E+01  0.89558532241E+01 -0.11520517240E+02  0.16264814481E+02  0.10566000000E+00 0. -1.
        996    1    1    2    0    0 -0.71835507659E+01 -0.89558532241E+01  0.90888426297E+02  0.10436722064E+03  0.50000000000E+02 0.  0.
<mgrwt>
<rscale>  0 0.51301176E+02</rscale>
<asrwt>0</asrwt>
<pdfrwt beam="1">  1       13 0.10000000E+01 0.51301176E+02</pdfrwt>
<pdfrwt beam="2">  1       22 0.20632057E+00 0.51301176E+02</pdfrwt>
<totfact> 0.42686623E-01</totfact>
</mgrwt>
</event>
<event>
 4    1  0.2486873E+000  0.5107907E+02  0.7957747E-01  0.1439607E+00
         13   -1    0    0    0    0  0.00000000000E+00  0.00000000000E+00  0.99999944182E+02  0.10000000000E+03  0.10566000000E+00 0. -1.
         22   -1    0    0    0    0 -0.00000000000E+00 -0.00000000000E+00 -0.12209850750E+02  0.12209850750E+02  0.00000000000E+00 0. -1.
         13    1    1    2    0    0  0.76879214781E+01 -0.70687402606E+01 -0.22508913299E+00  0.10446676729E+02  0.10566000000E+00 0.  1.
        996    1    1    2    0    0 -0.76879214781E+01  0.70687402606E+01  0.88015182564E+02  0.10176317402E+03  0.50000000000E+02 0.  0.
<mgrwt>
<rscale>  0 0.51079068E+02</rscale>
<asrwt>0</asrwt>
<pdfrwt beam="1">  1       13 0.10000000E+01 0.51079068E+02</pdfrwt>
<pdfrwt beam="2">  1       22 0.12209875E+00 0.51079068E+02</pdfrwt>
<totfact> 0.10445287E+00</totfact>
</mgrwt>
</event>
<event>
 4    1  0.2486873E+000  0.5100025E+02  0.7957747E-01  0.1440020E+00
         13   -1    0    0    0    0  0.00000000000E+00  0.00000000000E+00  0.99999944182E+02  0.10000000000E+03  0.10566000000E+00 0. -1.
         22   -1    0    0    0    0 -0.00000000000E+00 -0.00000000000E+00 -0.12495368510E+02  0.12495368510E+02  0.00000000000E+00 0. -1.
         13    1    1    2    0    0 -0.16341224723E+01  0.99174383183E+01 -0.12521835749E+01  0.10129415916E+02  0.10566000000E+00 0.  1.
        996    1    1    2    0    0  0.16341224723E+01 -0.99174383183E+01  0.88756759247E+02  0.10236595260E+03  0.50000000000E+02 0.  0.
<mgrwt>
<rscale>  0 0.51000254E+02</rscale>
<asrwt>0</asrwt>
<pdfrwt beam="1">  1       13 0.10000000E+01 0.51000254E+02</pdfrwt>
<pdfrwt beam="2">  1       22 0.12495393E+00 0.51000254E+02</pdfrwt>
<totfact> 0.10076747E+00</totfact>
</mgrwt>
</event>
<event>
 4    1  0.2486873E+000  0.6186616E+02  0.7957747E-01  0.1390163E+00
         13   -1    0    0    0    0  0.00000000000E+00  0.00000000000E+00  0.99999944175E+02  0.99999999995E+02  0.10566000000E+00 0.  1.
         22   -1    0    0    0    0 -0.00000000000E+00 -0.00000000000E+00 -0.35507391931E+02  0.35507391931E+02  0.00000000000E+00 0. -1.
         13    1    1    2    0    0  0.19491536509E+02  0.30781518453E+02 -0.10853901940E+02  0.38016315249E+02  0.10566000000E+00 0. -1.
        996    1    1    2    0    0 -0.19491536509E+02 -0.30781518453E+02  0.75346454184E+02  0.97491076678E+02  0.50000000000E+02 0.  0.
<mgrwt>
<rscale>  0 0.61866161E+02</rscale>
<asrwt>0</asrwt>
<pdfrwt beam="1">  1       13 0.10000000E+01 0.61866161E+02</pdfrwt>
<pdfrwt beam="2">  1       22 0.35507410E+00 0.61866161E+02</pdfrwt>
<totfact> 0.15464932E-01</totfact>
</mgrwt>
</event>
<event>
 4    1  0.2486873E+000  0.5206606E+02  0.7957747E-01  0.1434506E+00
         13   -1    0    0    0    0  0.00000000000E+00  0.00000000000E+00  0.99999944178E+02  0.99999999998E+02  0.10566000000E+00 0. -1.
         22   -1    0    0    0    0 -0.00000000000E+00 -0.00000000000E+00 -0.11188586237E+02  0.11188586237E+02  0.00000000000E+00 0.  1.
         13    1    1    2    0    0  0.63116763993E+01  0.13078126011E+02  0.24030851806E+02  0.28077885274E+02  0.10566000000E+00 0.  1.
        996    1    1    2    0    0 -0.63116763993E+01 -0.13078126011E+02  0.64780506135E+02  0.83110700960E+02  0.50000000000E+02 0.  0.
<mgrwt>
<rscale>  0 0.52066060E+02</rscale>
<asrwt>0</asrwt>
<pdfrwt beam="1">  1       13 0.10000000E+01 0.52066060E+02</pdfrwt>
<pdfrwt beam="2">  1       22 0.11188611E+00 0.52066060E+02</pdfrwt>
<totfact> 0.11952139E+00</totfact>
</mgrwt>
</event>
<event>
 4    1  0.2486873E+000  0.5292324E+02  0.7957747E-01  0.1430183E+00
         13   -1    0    0    0    0  0.00000000000E+00  0.00000000000E+00  0.99999944173E+02  0.99999999993E+02  0.10566000000E+00 0. -1.
         22   -1    0    0    0    0 -0.00000000000E+00 -0.00000000000E+00 -0.14524717932E+02  0.14524717932E+02  0.00000000000E+00 0. -1.
         13    1    1    2    0    0  0.49971563365E+01 -0.16610177246E+02  0.43968678242E+02  0.47266535625E+02  0.10566000000E+00 0.  1.
        996    1    1    2    0    0 -0.49971563365E+01  0.16610177246E+02  0.41506547999E+02  0.67258182301E+02  0.50000000000E+02 0.  0.
<mgrwt>
<rscale>  0 0.52923242E+02</rscale>
<asrwt>0</asrwt>
<pdfrwt beam="1">  1       13 0.10000000E+01 0.52923242E+02</pdfrwt>
<pdfrwt beam="2">  1       22 0.14524742E+00 0.52923242E+02</pdfrwt>
<totfact> 0.79562708E-01</totfact>
</mgrwt>
</event>
<event>
 4    1  0.2486873E+000  0.6288410E+02  0.7957747E-01  0.1386112E+00
         13   -1    0    0    0    0  0.00000000000E+00  0.00000000000E+00  0.99999944178E+02  0.99999999998E+02  0.10566000000E+00 0.  1.
         22   -1    0    0    0    0 -0.00000000000E+00 -0.00000000000E+00 -0.31179648599E+02  0.31179648599E+02  0.00000000000E+00 0. -1.
         13    1    1    2    0    0  0.94019917632E+01  0.36959609694E+02  0.24625335188E+00  0.38137671698E+02  0.10566000000E+00 0. -1.
        996    1    1    2    0    0 -0.94019917632E+01 -0.36959609694E+02  0.68574042227E+02  0.93041976899E+02  0.50000000000E+02 0.  0.
<mgrwt>
<rscale>  0 0.62884101E+02</rscale>
<asrwt>0</asrwt>
<pdfrwt beam="1">  1       13 0.10000000E+01 0.62884101E+02</pdfrwt>
<pdfrwt beam="2">  1       22 0.31179668E+00 0.62884101E+02</pdfrwt>
<totfact> 0.19520774E-01</totfact>
</mgrwt>
</event>
<event>
 4    1  0.2486873E+000  0.6271991E+02  0.7957747E-01  0.1386759E+00
         13   -1    0    0    0    0  0.00000000000E+00  0.00000000000E+00  0.99999944180E+02  0.10000000000E+03  0.10566000000E+00 0. -1.
         22   -1    0    0    0    0 -0.00000000000E+00 -0.00000000000E+00 -0.32351034696E+02  0.32351034696E+02  0.00000000000E+00 0.  1.
         13    1    1    2    0    0 -0.34202598861E+02  0.16247124375E+02 -0.28719051942E+01  0.37974278436E+02  0.10566000000E+00 0.  1.
        996    1    1    2    0    0  0.34202598861E+02 -0.16247124375E+02  0.70520814678E+02  0.94376756260E+02  0.50000000000E+02 0.  0.
<mgrwt>
<rscale>  0 0.62719908E+02</rscale>
<asrwt>0</asrwt>
<pdfrwt beam="1">  1       13 0.10000000E+01 0.62719908E+02</pdfrwt>
<pdfrwt beam="2">  1       22 0.32351054E+00 0.62719908E+02</pdfrwt>
<totfact> 0.18251806E-01</totfact>
</mgrwt>
</event>
<event>
 4    1  0.2486873E+000  0.5114983E+02  0.7957747E-01  0.1439237E+00
         13   -1    0    0    0    0  0.00000000000E+00  0.00000000000E+00  0.99999944175E+02  0.99999999996E+02  0.10566000000E+00 0.  1.
         22   -1    0    0    0    0 -0.00000000000E+00 -0.00000000000E+00 -0.16244821159E+02  0.16244821159E+02  0.00000000000E+00 0. -1.
         13    1    1    2    0    0  0.10245468670E+02 -0.33667615398E+01 -0.64357480321E+01  0.12559248716E+02  0.10566000000E+00 0. -1.
        996    1    1    2    0    0 -0.10245468670E+02  0.33667615398E+01  0.90190871048E+02  0.10368557244E+03  0.50000000000E+02 0.  0.
<mgrwt>
<rscale>  0 0.51149826E+02</rscale>
<asrwt>0</asrwt>
<pdfrwt beam="1">  1       13 0.10000000E+01 0.51149826E+02</pdfrwt>
<pdfrwt beam="2">  1       22 0.16244845E+00 0.51149826E+02</pdfrwt>
<totfact> 0.65677667E-01</totfact>
</mgrwt>
</event>
<event>
 4    1  0.2486873E+000  0.5269068E+02  0.7957747E-01  0.1431346E+00
         13   -1    0    0    0    0  0.00000000000E+00  0.00000000000E+00  0.99999944177E+02  0.99999999998E+02  0.10566000000E+00 0.  1.
         22   -1    0    0    0    0 -0.00000000000E+00 -0.00000000000E+00 -0.12263003821E+02  0.12263003821E+02  0.00000000000E+00 0. -1.
         13    1    1    2    0    0 -0.15949445745E+02 -0.46822485587E+01  0.14611481427E+02  0.22131760542E+02  0.10566000000E+00 0. -1.
        996    1    1    2    0    0  0.15949445745E+02  0.46822485587E+01  0.73125458929E+02  0.90131243277E+02  0.50000000000E+02 0.  0.
<mgrwt>
<rscale>  0 0.52690685E+02</rscale>
<asrwt>0</asrwt>
<pdfrwt beam="1">  1       13 0.10000000E+01 0.52690685E+02</pdfrwt>
<pdfrwt beam="2">  1       22 0.12263028E+00 0.52690685E+02</pdfrwt>
<totfact> 0.10412797E+00</totfact>
</mgrwt>
</event>
<event>
 4    1  0.2486873E+000  0.5106568E+02  0.7957747E-01  0.1439677E+00
         13   -1    0    0    0    0  0.00000000000E+00  0.00000000000E+00  0.99999944172E+02  0.99999999993E+02  0.10566000000E+00 0. -1.
         22   -1    0    0    0    0 -0.00000000000E+00 -0.00000000000E+00 -0.10575488798E+02  0.10575488798E+02  0.00000000000E+00 0. -1.
         13    1    1    2    0    0  0.36916558519E+01  0.96992234466E+01  0.41446223757E+01  0.11175523123E+02  0.10566000000E+00 0.  1.
        996    1    1    2    0    0 -0.36916558519E+01 -0.96992234466E+01  0.85279832999E+02  0.99399965668E+02  0.50000000000E+02 0.  0.
<mgrwt>
<rscale>  0 0.51065676E+02</rscale>
<asrwt>0</asrwt>
<pdfrwt beam="1">  1       13 0.10000000E+01 0.51065676E+02</pdfrwt>
<pdfrwt beam="2">  1       22 0.10575514E+00 0.51065676E+02</pdfrwt>
<totfact> 0.12963398E+00</totfact>
</mgrwt>
</event>
<event>
 4    1  0.2486873E+000  0.5506931E+02  0.7957747E-01  0.1419771E+00
         13   -1    0    0    0    0  0.00000000000E+00  0.00000000000E+00  0.99999944175E+02  0.99999999995E+02  0.10566000000E+00 0. -1.
         22   -1    0    0    0    0 -0.00000000000E+00 -0.00000000000E+00 -0.41811375614E+02  0.41811375614E+02  0.00000000000E+00 0.  1.
         13    1    1    2    0    0 -0.22195374045E+01 -0.22971775534E+02 -0.29994334639E+02  0.37845740737E+02  0.10566000000E+00 0.  1.
        996    1    1    2    0    0  0.22195374045E+01  0.22971775534E+02  0.88182903200E+02  0.10396563487E+03  0.50000000000E+02 0.  0.
<mgrwt>
<rscale>  0 0.55069309E+02</rscale>
<asrwt>0</asrwt>
<pdfrwt beam="1">  1       13 0.10000000E+01 0.55069309E+02</pdfrwt>
<pdfrwt beam="2">  1       22 0.41811392E+00 0.55069309E+02</pdfrwt>
<totfact> 0.11363015E-01</totfact>
</mgrwt>
</event>
<event>
 4    1  0.2486873E+000  0.5354844E+02  0.7957747E-01  0.1427091E+00
         13   -1    0    0    0    0  0.00000000000E+00  0.00000000000E+00  0.99999944185E+02  0.10000000000E+03  0.10566000000E+00 0.  1.
         22   -1    0    0    0    0 -0.00000000000E+00 -0.00000000000E+00 -0.13237538737E+02  0.13237538737E+02  0.00000000000E+00 0. -1.
         13    1    1    2    0    0 -0.97708943234E+01 -0.16491371930E+02  0.21057522386E+02  0.28475711353E+02  0.10566000000E+00 0. -1.
        996    1    1    2    0    0  0.97708943234E+01  0.16491371930E+02  0.65704883062E+02  0.84761827388E+02  0.50000000000E+02 0.  0.
<mgrwt>
<rscale>  0 0.53548443E+02</rscale>
<asrwt>0</asrwt>
<pdfrwt beam="1">  1       13 0.10000000E+01 0.53548443E+02</pdfrwt>
<pdfrwt beam="2">  1       22 0.13237563E+00 0.53548443E+02</pdfrwt>
<totfact> 0.92550737E-01</totfact>
</mgrwt>
</event>
<event>
 4    1  0.2486873E+000  0.5201368E+02  0.7957747E-01  0.1434773E+00
         13   -1    0    0    0    0  0.00000000000E+00  0.00000000000E+00  0.99999944176E+02  0.99999999996E+02  0.10566000000E+00 0. -1.
         22   -1    0    0    0    0 -0.00000000000E+00 -0.00000000000E+00 -0.12888147526E+02  0.12888147526E+02  0.00000000000E+00 0.  1.
         13    1    1    2    0    0  0.14317627634E+02  0.65481357290E+00  0.40665875731E+01  0.14898709353E+02  0.10566000000E+00 0.  1.
        996    1    1    2    0    0 -0.14317627634E+02 -0.65481357290E+00  0.83045209077E+02  0.97989438168E+02  0.50000000000E+02 0.  0.
<mgrwt>
<rscale>  0 0.52013683E+02</rscale>
<asrwt>0</asrwt>
<pdfrwt beam="1">  1       13 0.10000000E+01 0.52013683E+02</pdfrwt>
<pdfrwt beam="2">  1       22 0.12888172E+00 0.52013683E+02</pdfrwt>
<totfact> 0.96228460E-01</totfact>
</mgrwt>
</event>
<event>
 4    1  0.2486873E+000  0.5120749E+02  0.7957747E-01  0.1438935E+00
         13   -1    0    0    0    0  0.00000000000E+00  0.00000000000E+00  0.99999944181E+02  0.10000000000E+03  0.10566000000E+00 0.  1.
         22   -1    0    0    0    0 -0.00000000000E+00 -0.00000000000E+00 -0.19726474482E+02  0.19726474482E+02  0.00000000000E+00 0. -1.
         13    1    1    2    0    0  0.55349222617E+01  0.95693007440E+01 -0.10665429796E+02  0.15361296753E+02  0.10566000000E+00 0. -1.
        996    1    1    2    0    0 -0.55349222617E+01 -0.95693007440E+01  0.90938899495E+02  0.10436517773E+03  0.50000000000E+02 0.  0.
<mgrwt>
<rscale>  0 0.51207489E+02</rscale>
<asrwt>0</asrwt>
<pdfrwt beam="1">  1       13 0.10000000E+01 0.51207489E+02</pdfrwt>
<pdfrwt beam="2">  1       22 0.19726497E+00 0.51207489E+02</pdfrwt>
<totfact> 0.46416817E-01</totfact>
</mgrwt>
</event>
<event>
 4    1  0.2486873E+000  0.5452612E+02  0.7957747E-01  0.1422353E+00
         13   -1    0    0    0    0  0.00000000000E+00  0.00000000000E+00  0.99999944176E+02  0.99999999996E+02  0.10566000000E+00 0. -1.
         22   -1    0    0    0    0 -0.00000000000E+00 -0.00000000000E+00 -0.30553003859E+02  0.30553003859E+02  0.00000000000E+00 0.  1.
         13    1    1    2    0    0 -0.10409066962E+02 -0.19098400206E+02 -0.17504236459E+02  0.27919652998E+02  0.10566000000E+00 0.  1.
        996    1    1    2    0    0  0.10409066962E+02  0.19098400206E+02  0.86951176776E+02  0.10263335086E+03  0.50000000000E+02 0.  0.
<mgrwt>
<rscale>  0 0.54526118E+02</rscale>
<asrwt>0</asrwt>
<pdfrwt beam="1">  1       13 0.10000000E+01 0.54526118E+02</pdfrwt>
<pdfrwt beam="2">  1       22 0.30553023E+00 0.54526118E+02</pdfrwt>
<totfact> 0.20076351E-01</totfact>
</mgrwt>
</event>
<event>
 4    1  0.2486873E+000  0.5103233E+02  0.7957747E-01  0.1439852E+00
         13   -1    0    0    0    0  0.00000000000E+00  0.00000000000E+00  0.99999944179E+02  0.99999999999E+02  0.10566000000E+00 0. -1.
         22   -1    0    0    0    0 -0.00000000000E+00 -0.00000000000E+00 -0.11795936499E+02  0.11795936499E+02  0.00000000000E+00 0. -1.
         13    1    1    2    0    0 -0.10212329133E+02 -0.83891066250E-01  0.37846812767E+00  0.10220230242E+02  0.10566000000E+00 0.  1.
        996    1    1    2    0    0  0.10212329133E+02  0.83891066250E-01  0.87825539552E+02  0.10157570626E+03  0.50000000000E+02 0.  0.
<mgrwt>
<rscale>  0 0.51032330E+02</rscale>
<asrwt>0</asrwt>
<pdfrwt beam="1">  1       13 0.10000000E+01 0.51032330E+02</pdfrwt>
<pdfrwt beam="2">  1       22 0.11795961E+00 0.51032330E+02</pdfrwt>
<totfact> 0.11010410E+00</totfact>
</mgrwt>
</event>
<event>
 4    1  0.2486873E+000  0.5104102E+02  0.7957747E-01  0.1439806E+00
         13   -1    0    0    0    0  0.00000000000E+00  0.00000000000E+00  0.99999944177E+02  0.99999999997E+02  0.10566000000E+00 0.  1.
         22   -1    0    0    0    0 -0.00000000000E+00 -0.00000000000E+00 -0.39483563993E+02  0.39483563993E+02  0.00000000000E+00 0. -1.
         13    1    1    2    0    0  0.83361875042E+01 -0.59744221106E+01 -0.32119245507E+02  0.33717100077E+02  0.10566000000E+00 0. -1.
        996    1    1    2    0    0 -0.83361875042E+01  0.59744221106E+01  0.92635625691E+02  0.10576646391E+03  0.50000000000E+02 0.  0.
<mgrwt>
<rscale>  0 0.51041020E+02</rscale>
<asrwt>0</asrwt>
<pdfrwt beam="1">  1       13 0.10000000E+01 0.51041020E+02</pdfrwt>
<pdfrwt beam="2">  1       22 0.39483581E+00 0.51041020E+02</pdfrwt>
<totfact> 0.12664120E-01</totfact>
</mgrwt>
</event>
<event>
 4    1  0.2486873E+000  0.5159858E+02  0.7957747E-01  0.1436905E+00
         13   -1    0    0    0    0  0.00000000000E+00  0.00000000000E+00  0.99999944175E+02  0.99999999995E+02  0.10566000000E+00 0.  1.
         22   -1    0    0    0    0 -0.00000000000E+00 -0.00000000000E+00 -0.27157552939E+02  0.27157552939E+02  0.00000000000E+00 0. -1.
         13    1    1    2    0    0  0.11730720424E+02 -0.49803144375E+01 -0.18372331549E+02  0.22359943295E+02  0.10566000000E+00 0. -1.
        996    1    1    2    0    0 -0.11730720424E+02  0.49803144375E+01  0.91214722784E+02  0.10479760964E+03  0.50000000000E+02 0.  0.
<mgrwt>
<rscale>  0 0.51598579E+02</rscale>
<asrwt>0</asrwt>
<pdfrwt beam="1">  1       13 0.10000000E+01 0.51598579E+02</pdfrwt>
<pdfrwt beam="2">  1       22 0.27157573E+00 0.51598579E+02</pdfrwt>
<totfact> 0.25041168E-01</totfact>
</mgrwt>
</event>
<event>
 4    1  0.2486873E+000  0.5138544E+02  0.7957747E-01  0.1438009E+00
         13   -1    0    0    0    0  0.00000000000E+00  0.00000000000E+00  0.99999944179E+02  0.99999999999E+02  0.10566000000E+00 0. -1.
         22   -1    0    0    0    0 -0.00000000000E+00 -0.00000000000E+00 -0.10324732154E+02  0.10324732154E+02  0.00000000000E+00 0. -1.
         13    1    1    2    0    0 -0.41437346012E+01 -0.11103742054E+02  0.99529775699E+01  0.15476968391E+02  0.10566000000E+00 0.  1.
        996    1    1    2    0    0  0.41437346012E+01  0.11103742054E+02  0.79722234455E+02  0.94847763761E+02  0.50000000000E+02 0.  0.
<mgrwt>
<rscale>  0 0.51385442E+02</rscale>
<asrwt>0</asrwt>
<pdfrwt beam="1">  1       13 0.10000000E+01 0.51385442E+02</pdfrwt>
<pdfrwt beam="2">  1       22 0.10324757E+00 0.51385442E+02</pdfrwt>
<totfact> 0.13437659E+00</totfact>
</mgrwt>
</event>
<event>
 4    1  0.2486873E+000  0.5871103E+02  0.7957747E-01  0.1403322E+00
         13   -1    0    0    0    0  0.00000000000E+00  0.00000000000E+00  0.99999944176E+02  0.99999999996E+02  0.10566000000E+00 0. -1.
         22   -1    0    0    0    0 -0.00000000000E+00 -0.00000000000E+00 -0.22012035002E+02  0.22012035002E+02  0.00000000000E+00 0. -1.
         13    1    1    2    0    0 -0.29861233237E+02 -0.74358790584E+01  0.10396074925E+02  0.32481919366E+02  0.10566000000E+00 0.  1.
        996    1    1    2    0    0  0.29861233237E+02  0.74358790584E+01  0.67591834250E+02  0.89530115632E+02  0.50000000000E+02 0.  0.
<mgrwt>
<rscale>  0 0.58711034E+02</rscale>
<asrwt>0</asrwt>
<pdfrwt beam="1">  1       13 0.10000000E+01 0.58711034E+02</pdfrwt>
<pdfrwt beam="2">  1       22 0.22012057E+00 0.58711034E+02</pdfrwt>
<totfact> 0.38188174E-01</totfact>
</mgrwt>
</event>
<event>
 4    1  0.2486873E+000  0.5245298E+02  0.7957747E-01  0.1432543E+00
         13   -1    0    0    0    0  0.00000000000E+00  0.00000000000E+00  0.99999944185E+02  0.10000000001E+03  0.10566000000E+00 0.  1.
         22   -1    0    0    0    0 -0.00000000000E+00 -0.00000000000E+00 -0.19439238068E+02  0.19439238068E+02  0.00000000000E+00 0. -1.
         13    1    1    2    0    0 -0.13105413001E+02 -0.89198493580E+01 -0.70314846461E+01  0.17342678653E+02  0.10566000000E+00 0. -1.
        996    1    1    2    0    0  0.13105413001E+02  0.89198493580E+01  0.87592190764E+02  0.10209655942E+03  0.50000000000E+02 0.  0.
<mgrwt>
<rscale>  0 0.52452984E+02</rscale>
<asrwt>0</asrwt>
<pdfrwt beam="1">  1       13 0.10000000E+01 0.52452984E+02</pdfrwt>
<pdfrwt beam="2">  1       22 0.19439261E+00 0.52452984E+02</pdfrwt>
<totfact> 0.47802756E-01</totfact>
</mgrwt>
</event>
<event>
 4    1  0.2486873E+000  0.5218531E+02  0.7957747E-01  0.1433899E+00
         13   -1    0    0    0    0  0.00000000000E+00  0.00000000000E+00  0.99999944175E+02  0.99999999995E+02  0.10566000000E+00 0. -1.
         22   -1    0    0    0    0 -0.00000000000E+00 -0.00000000000E+00 -0.12282373701E+02  0.12282373701E+02  0.00000000000E+00 0. -1.
         13    1    1    2    0    0  0.13763480342E+02 -0.58200492963E+01  0.78578081718E+01  0.16883799283E+02  0.10566000000E+00 0.  1.
        996    1    1    2    0    0 -0.13763480342E+02  0.58200492963E+01  0.79859762302E+02  0.95398574412E+02  0.50000000000E+02 0.  0.
<mgrwt>
<rscale>  0 0.52185308E+02</rscale>
<asrwt>0</asrwt>
<pdfrwt beam="1">  1       13 0.10000000E+01 0.52185308E+02</pdfrwt>
<pdfrwt beam="2">  1       22 0.12282398E+00 0.52185308E+02</pdfrwt>
<totfact> 0.10375932E+00</totfact>
</mgrwt>
</event>
<event>
 4    1  0.2486873E+000  0.5243322E+02  0.7957747E-01  0.1432642E+00
         13   -1    0    0    0    0  0.00000000000E+00  0.00000000000E+00  0.99999944177E+02  0.99999999997E+02  0.10566000000E+00 0.  1.
         22   -1    0    0    0    0 -0.00000000000E+00 -0.00000000000E+00 -0.13615340386E+02  0.13615340386E+02  0.00000000000E+00 0.  1.
         13    1    1    2    0    0 -0.12613984771E+02 -0.94936698856E+01  0.45611165652E+01  0.16433421070E+02  0.10566000000E+00 0. -1.
        996    1    1    2    0    0  0.12613984771E+02  0.94936698856E+01  0.81823487226E+02  0.97181919313E+02  0.50000000000E+02 0.  0.
<mgrwt>
<rscale>  0 0.52433218E+02</rscale>
<asrwt>0</asrwt>
<pdfrwt beam="1">  1       13 0.10000000E+01 0.52433218E+02</pdfrwt>
<pdfrwt beam="2">  1       22 0.13615365E+00 0.52433218E+02</pdfrwt>
<totfact> 0.88281763E-01</totfact>
</mgrwt>
</event>
<event>
 4    1  0.2486873E+000  0.5118929E+02  0.7957747E-01  0.1439030E+00
         13   -1    0    0    0    0  0.00000000000E+00  0.00000000000E+00  0.99999944181E+02  0.10000000000E+03  0.10566000000E+00 0.  1.
         22   -1    0    0    0    0 -0.00000000000E+00 -0.00000000000E+00 -0.10396775810E+02  0.10396775810E+02  0.00000000000E+00 0.  1.
         13    1    1    2    0    0 -0.43347785949E+01  0.10077338156E+02  0.63799721828E+01  0.12690873053E+02  0.10566000000E+00 0. -1.
        996    1    1    2    0    0  0.43347785949E+01 -0.10077338156E+02  0.83223196188E+02  0.97705902757E+02  0.50000000000E+02 0.  0.
<mgrwt>
<rscale>  0 0.51189286E+02</rscale>
<asrwt>0</asrwt>
<pdfrwt beam="1">  1       13 0.10000000E+01 0.51189286E+02</pdfrwt>
<pdfrwt beam="2">  1       22 0.10396801E+00 0.51189286E+02</pdfrwt>
<totfact> 0.13295485E+00</totfact>
</mgrwt>
</event>
<event>
 4    1  0.2486873E+000  0.5458868E+02  0.7957747E-01  0.1422054E+00
         13   -1    0    0    0    0  0.00000000000E+00  0.00000000000E+00  0.99999944177E+02  0.99999999998E+02  0.10566000000E+00 0. -1.
         22   -1    0    0    0    0 -0.00000000000E+00 -0.00000000000E+00 -0.26049740256E+02  0.26049740256E+02  0.00000000000E+00 0.  1.
         13    1    1    2    0    0 -0.21651361862E+02  0.33380835736E+01 -0.11430207533E+02  0.24710019844E+02  0.10566000000E+00 0.  1.
        996    1    1    2    0    0  0.21651361862E+02 -0.33380835736E+01  0.85380411455E+02  0.10133972041E+03  0.50000000000E+02 0.  0.
<mgrwt>
<rscale>  0 0.54588683E+02</rscale>
<asrwt>0</asrwt>
<pdfrwt beam="1">  1       13 0.10000000E+01 0.54588683E+02</pdfrwt>
<pdfrwt beam="2">  1       22 0.26049761E+00 0.54588683E+02</pdfrwt>
<totfact> 0.27291993E-01</totfact>
</mgrwt>
</event>
<event>
 4    1  0.2486873E+000  0.6166096E+02  0.7957747E-01  0.1390991E+00
         13   -1    0    0    0    0  0.00000000000E+00  0.00000000000E+00  0.99999944169E+02  0.99999999990E+02  0.10566000000E+00 0. -1.
         22   -1    0    0    0    0 -0.00000000000E+00 -0.00000000000E+00 -0.38556266227E+02  0.38556266227E+02  0.00000000000E+00 0.  1.
         13    1    1    2    0    0 -0.14429479729E+02 -0.33073622428E+02 -0.16076354880E+02  0.39503604089E+02  0.10566000000E+00 0.  1.
        996    1    1    2    0    0  0.14429479729E+02  0.33073622428E+02  0.77520032822E+02  0.99052662127E+02  0.50000000000E+02 0.  0.
<mgrwt>
<rscale>  0 0.61660963E+02</rscale>
<asrwt>0</asrwt>
<pdfrwt beam="1">  1       13 0.10000000E+01 0.61660963E+02</pdfrwt>
<pdfrwt beam="2">  1       22 0.38556283E+00 0.61660963E+02</pdfrwt>
<totfact> 0.13341859E-01</totfact>
</mgrwt>
</event>
<event>
 4    1  0.2486873E+000  0.5123712E+02  0.7957747E-01  0.1438781E+00
         13   -1    0    0    0    0  0.00000000000E+00  0.00000000000E+00  0.99999944174E+02  0.99999999995E+02  0.10566000000E+00 0.  1.
         22   -1    0    0    0    0 -0.00000000000E+00 -0.00000000000E+00 -0.10798437029E+02  0.10798437029E+02  0.00000000000E+00 0.  1.
         13    1    1    2    0    0  0.71513927929E+01  0.86081295380E+01  0.50556829872E+01  0.12280611040E+02  0.10566000000E+00 0. -1.
        996    1    1    2    0    0 -0.71513927929E+01 -0.86081295380E+01  0.84145824159E+02  0.98517825983E+02  0.50000000000E+02 0.  0.
<mgrwt>
<rscale>  0 0.51237119E+02</rscale>
<asrwt>0</asrwt>
<pdfrwt beam="1">  1       13 0.10000000E+01 0.51237119E+02</pdfrwt>
<pdfrwt beam="2">  1       22 0.10798462E+00 0.51237119E+02</pdfrwt>
<totfact> 0.12575765E+00</totfact>
</mgrwt>
</event>
<event>
 4    1  0.2486873E+000  0.6395042E+02  0.7957747E-01  0.1381964E+00
         13   -1    0    0    0    0  0.00000000000E+00  0.00000000000E+00  0.99999944188E+02  0.10000000001E+03  0.10566000000E+00 0. -1.
         22   -1    0    0    0    0 -0.00000000000E+00 -0.00000000000E+00 -0.78161347436E+02  0.78161347436E+02  0.00000000000E+00 0.  1.
         13    1    1    2    0    0  0.39646818962E+02 -0.42174157472E+01 -0.61389996225E+02  0.73201090497E+02  0.10566000000E+00 0.  1.
        996    1    1    2    0    0 -0.39646818962E+02  0.42174157472E+01  0.83228592978E+02  0.10496025695E+03  0.50000000000E+02 0.  0.
<mgrwt>
<rscale>  0 0.63950425E+02</rscale>
<asrwt>0</asrwt>
<pdfrwt beam="1">  1       13 0.10000000E+01 0.63950425E+02</pdfrwt>
<pdfrwt beam="2">  1       22 0.78161354E+00 0.63950425E+02</pdfrwt>
<totfact> 0.36549547E-02</totfact>
</mgrwt>
</event>
<event>
 4    1  0.2486873E+000  0.5227186E+02  0.7957747E-01  0.1433459E+00
         13   -1    0    0    0    0  0.00000000000E+00  0.00000000000E+00  0.99999944178E+02  0.99999999998E+02  0.10566000000E+00 0.  1.
         22   -1    0    0    0    0 -0.00000000000E+00 -0.00000000000E+00 -0.17238103213E+02  0.17238103213E+02  0.00000000000E+00 0. -1.
         13    1    1    2    0    0 -0.14901590195E+02  0.32078479862E+01 -0.41678207842E+01  0.15802834340E+02  0.10566000000E+00 0. -1.
        996    1    1    2    0    0  0.14901590195E+02 -0.32078479862E+01  0.86929661750E+02  0.10143526887E+03  0.50000000000E+02 0.  0.
<mgrwt>
<rscale>  0 0.52271863E+02</rscale>
<asrwt>0</asrwt>
<pdfrwt beam="1">  1       13 0.10000000E+01 0.52271863E+02</pdfrwt>
<pdfrwt beam="2">  1       22 0.17238126E+00 0.52271863E+02</pdfrwt>
<totfact> 0.59361566E-01</totfact>
</mgrwt>
</event>
<event>
 4    1  0.2486873E+000  0.5531797E+02  0.7957747E-01  0.1418601E+00
         13   -1    0    0    0    0  0.00000000000E+00  0.00000000000E+00  0.99999944178E+02  0.99999999998E+02  0.10566000000E+00 0.  1.
         22   -1    0    0    0    0 -0.00000000000E+00 -0.00000000000E+00 -0.15755758187E+02  0.15755758187E+02  0.00000000000E+00 0.  1.
         13    1    1    2    0    0 -0.17774490067E+02 -0.15625152885E+02  0.20072145792E+02  0.31031920671E+02  0.10566000000E+00 0. -1.
        996    1    1    2    0    0  0.17774490067E+02  0.15625152885E+02  0.64172040199E+02  0.84723837514E+02  0.50000000000E+02 0.  0.
<mgrwt>
<rscale>  0 0.55317971E+02</rscale>
<asrwt>0</asrwt>
<pdfrwt beam="1">  1       13 0.10000000E+01 0.55317971E+02</pdfrwt>
<pdfrwt beam="2">  1       22 0.15755782E+00 0.55317971E+02</pdfrwt>
<totfact> 0.69764971E-01</totfact>
</mgrwt>
</event>
<event>
 4    1  0.2486873E+000  0.5123649E+02  0.7957747E-01  0.1438784E+00
         13   -1    0    0    0    0  0.00000000000E+00  0.00000000000E+00  0.99999944175E+02  0.99999999995E+02  0.10566000000E+00 0. -1.
         22   -1    0    0    0    0 -0.00000000000E+00 -0.00000000000E+00 -0.10998772302E+02  0.10998772302E+02  0.00000000000E+00 0.  1.
         13    1    1    2    0    0  0.13102011836E+01  0.11111325413E+02  0.42601035202E+01  0.11972377609E+02  0.10566000000E+00 0.  1.
        996    1    1    2    0    0 -0.13102011836E+01 -0.11111325413E+02  0.84741068352E+02  0.99026394689E+02  0.50000000000E+02 0.  0.
<mgrwt>
<rscale>  0 0.51236493E+02</rscale>
<asrwt>0</asrwt>
<pdfrwt beam="1">  1       13 0.10000000E+01 0.51236493E+02</pdfrwt>
<pdfrwt beam="2">  1       22 0.10998797E+00 0.51236493E+02</pdfrwt>
<totfact> 0.12237503E+00</totfact>
</mgrwt>
</event>
<event>
 4    1  0.2486873E+000  0.5131486E+02  0.7957747E-01  0.1438376E+00
         13   -1    0    0    0    0  0.00000000000E+00  0.00000000000E+00  0.99999944181E+02  0.10000000000E+03  0.10566000000E+00 0. -1.
         22   -1    0    0    0    0 -0.00000000000E+00 -0.00000000000E+00 -0.10828966524E+02  0.10828966524E+02  0.00000000000E+00 0. -1.
         13    1    1    2    0    0  0.61614910100E+01  0.97596592359E+01  0.57659965269E+01  0.12902433873E+02  0.10566000000E+00 0.  1.
        996    1    1    2    0    0 -0.61614910100E+01 -0.97596592359E+01  0.83404981131E+02  0.97926532652E+02  0.50000000000E+02 0.  0.
<mgrwt>
<rscale>  0 0.51314861E+02</rscale>
<asrwt>0</asrwt>
<pdfrwt beam="1">  1       13 0.10000000E+01 0.51314861E+02</pdfrwt>
<pdfrwt beam="2">  1       22 0.10828991E+00 0.51314861E+02</pdfrwt>
<totfact> 0.12525631E+00</totfact>
</mgrwt>
</event>
<event>
 4    1  0.2486873E+000  0.5330547E+02  0.7957747E-01  0.1428287E+00
         13   -1    0    0    0    0  0.00000000000E+00  0.00000000000E+00  0.99999944176E+02  0.99999999996E+02  0.10566000000E+00 0.  1.
         22   -1    0    0    0    0 -0.00000000000E+00 -0.00000000000E+00 -0.32819375125E+02  0.32819375125E+02  0.00000000000E+00 0. -1.
         13    1    1    2    0    0  0.15590489995E+02  0.99201793687E+01 -0.22117433895E+02  0.28821266161E+02  0.10566000000E+00 0. -1.
        996    1    1    2    0    0 -0.15590489995E+02 -0.99201793687E+01  0.89298002946E+02  0.10399810896E+03  0.50000000000E+02 0.  0.
<mgrwt>
<rscale>  0 0.53305472E+02</rscale>
<asrwt>0</asrwt>
<pdfrwt beam="1">  1       13 0.10000000E+01 0.53305472E+02</pdfrwt>
<pdfrwt beam="2">  1       22 0.32819394E+00 0.53305472E+02</pdfrwt>
<totfact> 0.17614832E-01</totfact>
</mgrwt>
</event>
<event>
 4    1  0.2486873E+000  0.5965485E+02  0.7957747E-01  0.1399286E+00
         13   -1    0    0    0    0  0.00000000000E+00  0.00000000000E+00  0.99999944176E+02  0.99999999996E+02  0.10566000000E+00 0. -1.
         22   -1    0    0    0    0 -0.00000000000E+00 -0.00000000000E+00 -0.29827610728E+02  0.29827610728E+02  0.00000000000E+00 0.  1.
         13    1    1    2    0    0 -0.13910869174E+02 -0.29414100275E+02 -0.59889400699E+01  0.33084439595E+02  0.10566000000E+00 0.  1.
        996    1    1    2    0    0  0.13910869174E+02  0.29414100275E+02  0.76161273518E+02  0.96743171129E+02  0.50000000000E+02 0.  0.
<mgrwt>
<rscale>  0 0.59654854E+02</rscale>
<asrwt>0</asrwt>
<pdfrwt beam="1">  1       13 0.10000000E+01 0.59654854E+02</pdfrwt>
<pdfrwt beam="2">  1       22 0.29827630E+00 0.59654854E+02</pdfrwt>
<totfact> 0.21126363E-01</totfact>
</mgrwt>
</event>
<event>
 4    1  0.2486873E+000  0.5128211E+02  0.7957747E-01  0.1438546E+00
         13   -1    0    0    0    0  0.00000000000E+00  0.00000000000E+00  0.99999944178E+02  0.99999999998E+02  0.10566000000E+00 0. -1.
         22   -1    0    0    0    0 -0.00000000000E+00 -0.00000000000E+00 -0.13614552574E+02  0.13614552574E+02  0.00000000000E+00 0.  1.
         13    1    1    2    0    0 -0.11087255842E+02  0.26320594775E+01 -0.18635679731E+01  0.11547252003E+02  0.10566000000E+00 0.  1.
        996    1    1    2    0    0  0.11087255842E+02 -0.26320594775E+01  0.88248959576E+02  0.10206730057E+03  0.50000000000E+02 0.  0.
<mgrwt>
<rscale>  0 0.51282112E+02</rscale>
<asrwt>0</asrwt>
<pdfrwt beam="1">  1       13 0.10000000E+01 0.51282112E+02</pdfrwt>
<pdfrwt beam="2">  1       22 0.13614577E+00 0.51282112E+02</pdfrwt>
<totfact> 0.88073511E-01</totfact>
</mgrwt>
</event>
<event>
 4    1  0.2486873E+000  0.5109528E+02  0.7957747E-01  0.1439522E+00
         13   -1    0    0    0    0  0.00000000000E+00  0.00000000000E+00  0.99999944180E+02  0.10000000000E+03  0.10566000000E+00 0.  1.
         22   -1    0    0    0    0 -0.00000000000E+00 -0.00000000000E+00 -0.69714693875E+02  0.69714693875E+02  0.00000000000E+00 0. -1.
         13    1    1    2    0    0 -0.80527491189E+01  0.67735588146E+01 -0.62720831924E+02  0.63597498289E+02  0.10566000000E+00 0. -1.
        996    1    1    2    0    0  0.80527491189E+01 -0.67735588146E+01  0.93006082229E+02  0.10611719559E+03  0.50000000000E+02 0.  0.
<mgrwt>
<rscale>  0 0.51095282E+02</rscale>
<asrwt>0</asrwt>
<pdfrwt beam="1">  1       13 0.10000000E+01 0.51095282E+02</pdfrwt>
<pdfrwt beam="2">  1       22 0.69714702E+00 0.51095282E+02</pdfrwt>
<totfact> 0.76083855E-02</totfact>
</mgrwt>
</event>
<event>
 4    1  0.2486873E+000  0.5139967E+02  0.7957747E-01  0.1437935E+00
         13   -1    0    0    0    0  0.00000000000E+00  0.00000000000E+00  0.99999944175E+02  0.99999999995E+02  0.10566000000E+00 0.  1.
         22   -1    0    0    0    0 -0.00000000000E+00 -0.00000000000E+00 -0.10625445482E+02  0.10625445482E+02  0.00000000000E+00 0.  1.
         13    1    1    2    0    0  0.10835699093E+02  0.49511046963E+01  0.28895591943E+02  0.31255274920E+02  0.10566000000E+00 0. -1.
        996    1    1    2    0    0 -0.10835699093E+02 -0.49511046963E+01  0.60478906749E+02  0.79370170556E+02  0.50000000000E+02 0.  0.
<mgrwt>
<rscale>  0 0.51399667E+02</rscale>
<asrwt>0</asrwt>
<pdfrwt beam="1">  1       13 0.10000000E+01 0.51399667E+02</pdfrwt>
<pdfrwt beam="2">  1       22 0.10625470E+00 0.51399667E+02</pdfrwt>
<totfact> 0.12884060E+00</totfact>
</mgrwt>
</event>
<event>
 4    1  0.2486873E+000  0.5141121E+02  0.7957747E-01  0.1437875E+00
         13   -1    0    0    0    0  0.00000000000E+00  0.00000000000E+00  0.99999944168E+02  0.99999999988E+02  0.10566000000E+00 0. -1.
         22   -1    0    0    0    0 -0.00000000000E+00 -0.00000000000E+00 -0.20706625417E+02  0.20706625417E+02  0.00000000000E+00 0.  1.
         13    1    1    2    0    0 -0.11100790755E+02 -0.44592039698E+01 -0.11354987689E+02  0.16494210041E+02  0.10566000000E+00 0.  1.
        996    1    1    2    0    0  0.11100790755E+02  0.44592039698E+01  0.90648306440E+02  0.10421241536E+03  0.50000000000E+02 0.  0.
<mgrwt>
<rscale>  0 0.51411206E+02</rscale>
<asrwt>0</asrwt>
<pdfrwt beam="1">  1       13 0.10000000E+01 0.51411206E+02</pdfrwt>
<pdfrwt beam="2">  1       22 0.20706648E+00 0.51411206E+02</pdfrwt>
<totfact> 0.42405433E-01</totfact>
</mgrwt>
</event>
<event>
 4    1  0.2486873E+000  0.5257680E+02  0.7957747E-01  0.1431919E+00
         13   -1    0    0    0    0  0.00000000000E+00  0.00000000000E+00  0.99999944178E+02  0.99999999998E+02  0.10566000000E+00 0. -1.
         22   -1    0    0    0    0 -0.00000000000E+00 -0.00000000000E+00 -0.31338240371E+02  0.31338240371E+02  0.00000000000E+00 0.  1.
         13    1    1    2    0    0  0.27564544813E+01  0.16022530107E+02 -0.21506847369E+02  0.26960622398E+02  0.10566000000E+00 0.  1.
        996    1    1    2    0    0 -0.27564544813E+01 -0.16022530107E+02  0.90168551175E+02  0.10437761797E+03  0.50000000000E+02 0.  0.
<mgrwt>
<rscale>  0 0.52576796E+02</rscale>
<asrwt>0</asrwt>
<pdfrwt beam="1">  1       13 0.10000000E+01 0.52576796E+02</pdfrwt>
<pdfrwt beam="2">  1       22 0.31338260E+00 0.52576796E+02</pdfrwt>
<totfact> 0.19118499E-01</totfact>
</mgrwt>
</event>
<event>
 4    1  0.2486873E+000  0.5218147E+02  0.7957747E-01  0.1433918E+00
         13   -1    0    0    0    0  0.00000000000E+00  0.00000000000E+00  0.99999944178E+02  0.99999999998E+02  0.10566000000E+00 0.  1.
         22   -1    0    0    0    0 -0.00000000000E+00 -0.00000000000E+00 -0.13057688593E+02  0.13057688593E+02  0.00000000000E+00 0.  1.
         13    1    1    2    0    0 -0.14856676041E+02  0.14781140220E+01  0.46902044314E+01  0.15649754813E+02  0.10566000000E+00 0. -1.
        996    1    1    2    0    0  0.14856676041E+02 -0.14781140220E+01  0.82252051154E+02  0.97407933779E+02  0.50000000000E+02 0.  0.
<mgrwt>
<rscale>  0 0.52181468E+02</rscale>
<asrwt>0</asrwt>
<pdfrwt beam="1">  1       13 0.10000000E+01 0.52181468E+02</pdfrwt>
<pdfrwt beam="2">  1       22 0.13057713E+00 0.52181468E+02</pdfrwt>
<totfact> 0.94302969E-01</totfact>
</mgrwt>
</event>
<event>
 4    1  0.2486873E+000  0.5110612E+02  0.7957747E-01  0.1439465E+00
         13   -1    0    0    0    0  0.00000000000E+00  0.00000000000E+00  0.99999944183E+02  0.10000000000E+03  0.10566000000E+00 0.  1.
         22   -1    0    0    0    0 -0.00000000000E+00 -0.00000000000E+00 -0.95308337407E+01  0.95308337407E+01  0.00000000000E+00 0.  1.
         13    1    1    2    0    0 -0.82246439446E+01  0.66476430521E+01  0.13716349243E+02  0.17320084490E+02  0.10566000000E+00 0. -1.
        996    1    1    2    0    0  0.82246439446E+01 -0.66476430521E+01  0.76752761199E+02  0.92210749253E+02  0.50000000000E+02 0.  0.
<mgrwt>
<rscale>  0 0.51106124E+02</rscale>
<asrwt>0</asrwt>
<pdfrwt beam="1">  1       13 0.10000000E+01 0.51106124E+02</pdfrwt>
<pdfrwt beam="2">  1       22 0.95308590E-01 0.51106124E+02</pdfrwt>
<totfact> 0.15074431E+00</totfact>
</mgrwt>
</event>
<event>
 4    1  0.2486873E+000  0.5197120E+02  0.7957747E-01  0.1434990E+00
         13   -1    0    0    0    0  0.00000000000E+00  0.00000000000E+00  0.99999944176E+02  0.99999999997E+02  0.10566000000E+00 0.  1.
         22   -1    0    0    0    0 -0.00000000000E+00 -0.00000000000E+00 -0.15651523604E+02  0.15651523604E+02  0.00000000000E+00 0. -1.
         13    1    1    2    0    0  0.11986844561E+02  0.75710530259E+01 -0.25424270950E+01  0.14404179463E+02  0.10566000000E+00 0. -1.
        996    1    1    2    0    0 -0.11986844561E+02 -0.75710530259E+01  0.86890847668E+02  0.10124734414E+03  0.50000000000E+02 0.  0.
<mgrwt>
<rscale>  0 0.51971197E+02</rscale>
<asrwt>0</asrwt>
<pdfrwt beam="1">  1       13 0.10000000E+01 0.51971197E+02</pdfrwt>
<pdfrwt beam="2">  1       22 0.15651547E+00 0.51971197E+02</pdfrwt>
<totfact> 0.70099378E-01</totfact>
</mgrwt>
</event>
<event>
 4    1  0.2486873E+000  0.5202246E+02  0.7957747E-01  0.1434729E+00
         13   -1    0    0    0    0  0.00000000000E+00  0.00000000000E+00  0.99999944179E+02  0.99999999999E+02  0.10566000000E+00 0.  1.
         22   -1    0    0    0    0 -0.00000000000E+00 -0.00000000000E+00 -0.11594726574E+02  0.11594726574E+02  0.00000000000E+00 0.  1.
         13    1    1    2    0    0  0.55785843270E+01  0.13236890668E+02  0.10008489802E+02  0.17507624333E+02  0.10566000000E+00 0. -1.
        996    1    1    2    0    0 -0.55785843270E+01 -0.13236890668E+02  0.78396727803E+02  0.94087102239E+02  0.50000000000E+02 0.  0.
<mgrwt>
<rscale>  0 0.52022456E+02</rscale>
<asrwt>0</asrwt>
<pdfrwt beam="1">  1       13 0.10000000E+01 0.52022456E+02</pdfrwt>
<pdfrwt beam="2">  1       22 0.11594751E+00 0.52022456E+02</pdfrwt>
<totfact> 0.11326949E+00</totfact>
</mgrwt>
</event>
<event>
 4    1  0.2486873E+000  0.5103194E+02  0.7957747E-01  0.1439854E+00
         13   -1    0    0    0    0  0.00000000000E+00  0.00000000000E+00  0.99999944182E+02  0.10000000000E+03  0.10566000000E+00 0. -1.
         22   -1    0    0    0    0 -0.00000000000E+00 -0.00000000000E+00 -0.11470542240E+02  0.11470542240E+02  0.00000000000E+00 0. -1.
         13    1    1    2    0    0 -0.10207984692E+02  0.23659462307E+00  0.11437450201E+01  0.10275127502E+02  0.10566000000E+00 0.  1.
        996    1    1    2    0    0  0.10207984692E+02 -0.23659462307E+00  0.87385656922E+02  0.10119541474E+03  0.50000000000E+02 0.  0.
<mgrwt>
<rscale>  0 0.51031940E+02</rscale>
<asrwt>0</asrwt>
<pdfrwt beam="1">  1       13 0.10000000E+01 0.51031940E+02</pdfrwt>
<pdfrwt beam="2">  1       22 0.11470567E+00 0.51031940E+02</pdfrwt>
<totfact> 0.11486458E+00</totfact>
</mgrwt>
</event>
<event>
 4    1  0.2486873E+000  0.5230903E+02  0.7957747E-01  0.1433271E+00
         13   -1    0    0    0    0  0.00000000000E+00  0.00000000000E+00  0.99999944178E+02  0.99999999998E+02  0.10566000000E+00 0.  1.
         22   -1    0    0    0    0 -0.00000000000E+00 -0.00000000000E+00 -0.11451389755E+02  0.11451389755E+02  0.00000000000E+00 0.  1.
         13    1    1    2    0    0  0.11096671028E+02  0.10634776692E+02  0.19920270554E+02  0.25160741765E+02  0.10566000000E+00 0. -1.
        996    1    1    2    0    0 -0.11096671028E+02 -0.10634776692E+02  0.68628283870E+02  0.86290647988E+02  0.50000000000E+02 0.  0.
<mgrwt>
<rscale>  0 0.52309030E+02</rscale>
<asrwt>0</asrwt>
<pdfrwt beam="1">  1       13 0.10000000E+01 0.52309030E+02</pdfrwt>
<pdfrwt beam="2">  1       22 0.11451414E+00 0.52309030E+02</pdfrwt>
<totfact> 0.11549145E+00</totfact>
</mgrwt>
</event>
<event>
 4    1  0.2486873E+000  0.5238911E+02  0.7957747E-01  0.1432865E+00
         13   -1    0    0    0    0  0.00000000000E+00  0.00000000000E+00  0.99999944180E+02  0.10000000000E+03  0.10566000000E+00 0. -1.
         22   -1    0    0    0    0 -0.00000000000E+00 -0.00000000000E+00 -0.17425375949E+02  0.17425375949E+02  0.00000000000E+00 0.  1.
         13    1    1    2    0    0  0.15549976918E+02  0.16783285814E+01 -0.40810058382E+01  0.16164292179E+02  0.10566000000E+00 0.  1.
        996    1    1    2    0    0 -0.15549976918E+02 -0.16783285814E+01  0.86655574069E+02  0.10126108377E+03  0.50000000000E+02 0.  0.
<mgrwt>
<rscale>  0 0.52389107E+02</rscale>
<asrwt>0</asrwt>
<pdfrwt beam="1">  1       13 0.10000000E+01 0.52389107E+02</pdfrwt>
<pdfrwt beam="2">  1       22 0.17425399E+00 0.52389107E+02</pdfrwt>
<totfact> 0.58252457E-01</totfact>
</mgrwt>
</event>
<event>
 4    1  0.2486873E+000  0.5136306E+02  0.7957747E-01  0.1438125E+00
         13   -1    0    0    0    0  0.00000000000E+00  0.00000000000E+00  0.99999944178E+02  0.99999999998E+02  0.10566000000E+00 0.  1.
         22   -1    0    0    0    0 -0.00000000000E+00 -0.00000000000E+00 -0.10136724358E+02  0.10136724358E+02  0.00000000000E+00 0.  1.
         13    1    1    2    0    0 -0.11754124763E+02  0.64817644717E-01  0.11529054636E+02  0.16464929855E+02  0.10566000000E+00 0. -1.
        996    1    1    2    0    0  0.11754124763E+02 -0.64817644717E-01  0.78334165183E+02  0.93671794502E+02  0.50000000000E+02 0.  0.
<mgrwt>
<rscale>  0 0.51363057E+02</rscale>
<asrwt>0</asrwt>
<pdfrwt beam="1">  1       13 0.10000000E+01 0.51363057E+02</pdfrwt>
<pdfrwt beam="2">  1       22 0.10136749E+00 0.51363057E+02</pdfrwt>
<totfact> 0.13801587E+00</totfact>
</mgrwt>
</event>
<event>
 4    1  0.2486873E+000  0.6220753E+02  0.7957747E-01  0.1388795E+00
         13   -1    0    0    0    0  0.00000000000E+00  0.00000000000E+00  0.99999944177E+02  0.99999999997E+02  0.10566000000E+00 0. -1.
         22   -1    0    0    0    0 -0.00000000000E+00 -0.00000000000E+00 -0.32477103675E+02  0.32477103675E+02  0.00000000000E+00 0.  1.
         13    1    1    2    0    0 -0.36476040619E+02 -0.62669751848E+01 -0.45287896305E+01  0.37286694902E+02  0.10566000000E+00 0.  1.
        996    1    1    2    0    0  0.36476040619E+02  0.62669751848E+01  0.72051630132E+02  0.95190408770E+02  0.50000000000E+02 0.  0.
<mgrwt>
<rscale>  0 0.62207528E+02</rscale>
<asrwt>0</asrwt>
<pdfrwt beam="1">  1       13 0.10000000E+01 0.62207528E+02</pdfrwt>
<pdfrwt beam="2">  1       22 0.32477123E+00 0.62207528E+02</pdfrwt>
<totfact> 0.18115639E-01</totfact>
</mgrwt>
</event>
<event>
 4    1  0.2486873E+000  0.5565608E+02  0.7957747E-01  0.1417021E+00
         13   -1    0    0    0    0  0.00000000000E+00  0.00000000000E+00  0.99999944180E+02  0.10000000000E+03  0.10566000000E+00 0.  1.
         22   -1    0    0    0    0 -0.00000000000E+00 -0.00000000000E+00 -0.81263884274E+02  0.81263884274E+02  0.00000000000E+00 0. -1.
         13    1    1    2    0    0 -0.15780503556E+02 -0.18670152044E+02 -0.71322323676E+02  0.75395516368E+02  0.10566000000E+00 0. -1.
        996    1    1    2    0    0  0.15780503556E+02  0.18670152044E+02  0.90058383582E+02  0.10586836791E+03  0.50000000000E+02 0.  0.
<mgrwt>
<rscale>  0 0.55656077E+02</rscale>
<asrwt>0</asrwt>
<pdfrwt beam="1">  1       13 0.10000000E+01 0.55656077E+02</pdfrwt>
<pdfrwt beam="2">  1       22 0.81263890E+00 0.55656077E+02</pdfrwt>
<totfact> 0.27454061E-02</totfact>
</mgrwt>
</event>
<event>
 4    1  0.2486873E+000  0.5337273E+02  0.7957747E-01  0.1427955E+00
         13   -1    0    0    0    0  0.00000000000E+00  0.00000000000E+00  0.99999944177E+02  0.99999999997E+02  0.10566000000E+00 0.  1.
         22   -1    0    0    0    0 -0.00000000000E+00 -0.00000000000E+00 -0.15860453375E+02  0.15860453375E+02  0.00000000000E+00 0. -1.
         13    1    1    2    0    0  0.11565235619E+02  0.14659239569E+02  0.32556880097E+01  0.18954119555E+02  0.10566000000E+00 0. -1.
        996    1    1    2    0    0 -0.11565235619E+02 -0.14659239569E+02  0.80883802793E+02  0.96906333817E+02  0.50000000000E+02 0.  0.
<mgrwt>
<rscale>  0 0.53372727E+02</rscale>
<asrwt>0</asrwt>
<pdfrwt beam="1">  1       13 0.10000000E+01 0.53372727E+02</pdfrwt>
<pdfrwt beam="2">  1       22 0.15860477E+00 0.53372727E+02</pdfrwt>
<totfact> 0.68727263E-01</totfact>
</mgrwt>
</event>
<event>
 4    1  0.2486873E+000  0.5964837E+02  0.7957747E-01  0.1399313E+00
         13   -1    0    0    0    0  0.00000000000E+00  0.00000000000E+00  0.99999944181E+02  0.10000000000E+03  0.10566000000E+00 0.  1.
         22   -1    0    0    0    0 -0.00000000000E+00 -0.00000000000E+00 -0.24228323015E+02  0.24228323015E+02  0.00000000000E+00 0. -1.
         13    1    1    2    0    0  0.29466917153E+02  0.13770599915E+02  0.71435455817E+01  0.33301201721E+02  0.10566000000E+00 0. -1.
        996    1    1    2    0    0 -0.29466917153E+02 -0.13770599915E+02  0.68628075584E+02  0.90927121295E+02  0.50000000000E+02 0.  0.
<mgrwt>
<rscale>  0 0.59648375E+02</rscale>
<asrwt>0</asrwt>
<pdfrwt beam="1">  1       13 0.10000000E+01 0.59648375E+02</pdfrwt>
<pdfrwt beam="2">  1       22 0.24228344E+00 0.59648375E+02</pdfrwt>
<totfact> 0.31711610E-01</totfact>
</mgrwt>
</event>
<event>
 4    1  0.2486873E+000  0.5430939E+02  0.7957747E-01  0.1423393E+00
         13   -1    0    0    0    0  0.00000000000E+00  0.00000000000E+00  0.99999944181E+02  0.10000000000E+03  0.10566000000E+00 0. -1.
         22   -1    0    0    0    0 -0.00000000000E+00 -0.00000000000E+00 -0.22384786267E+02  0.22384786267E+02  0.00000000000E+00 0.  1.
         13    1    1    2    0    0 -0.15513611854E+02  0.14451207803E+02 -0.65745575436E+01  0.22197872210E+02  0.10566000000E+00 0.  1.
        996    1    1    2    0    0  0.15513611854E+02 -0.14451207803E+02  0.84189715457E+02  0.10018691406E+03  0.50000000000E+02 0.  0.
<mgrwt>
<rscale>  0 0.54309387E+02</rscale>
<asrwt>0</asrwt>
<pdfrwt beam="1">  1       13 0.10000000E+01 0.54309387E+02</pdfrwt>
<pdfrwt beam="2">  1       22 0.22384808E+00 0.54309387E+02</pdfrwt>
<totfact> 0.36717857E-01</totfact>
</mgrwt>
</event>
<event>
 4    1  0.2486873E+000  0.5293646E+02  0.7957747E-01  0.1430117E+00
         13   -1    0    0    0    0  0.00000000000E+00  0.00000000000E+00  0.99999944180E+02  0.10000000000E+03  0.10566000000E+00 0. -1.
         22   -1    0    0    0    0 -0.00000000000E+00 -0.00000000000E+00 -0.12569148069E+02  0.12569148069E+02  0.00000000000E+00 0. -1.
         13    1    1    2    0    0  0.10103398116E+02 -0.14148840901E+02  0.28212400643E+02  0.33139388444E+02  0.10566000000E+00 0.  1.
        996    1    1    2    0    0 -0.10103398116E+02  0.14148840901E+02  0.59218395468E+02  0.79429759625E+02  0.50000000000E+02 0.  0.
<mgrwt>
<rscale>  0 0.52936456E+02</rscale>
<asrwt>0</asrwt>
<pdfrwt beam="1">  1       13 0.10000000E+01 0.52936456E+02</pdfrwt>
<pdfrwt beam="2">  1       22 0.12569172E+00 0.52936456E+02</pdfrwt>
<totfact> 0.10027519E+00</totfact>
</mgrwt>
</event>
<event>
 4    1  0.2486873E+000  0.5779747E+02  0.7957747E-01  0.1407314E+00
         13   -1    0    0    0    0  0.00000000000E+00  0.00000000000E+00  0.99999944182E+02  0.10000000000E+03  0.10566000000E+00 0.  1.
         22   -1    0    0    0    0 -0.00000000000E+00 -0.00000000000E+00 -0.30318473679E+02  0.30318473679E+02  0.00000000000E+00 0. -1.
         13    1    1    2    0    0  0.20099985265E+02  0.20893493753E+02 -0.11053111015E+02  0.31027889326E+02  0.10566000000E+00 0. -1.
        996    1    1    2    0    0 -0.20099985265E+02 -0.20893493753E+02  0.80734581518E+02  0.99290584356E+02  0.50000000000E+02 0.  0.
<mgrwt>
<rscale>  0 0.57797470E+02</rscale>
<asrwt>0</asrwt>
<pdfrwt beam="1">  1       13 0.10000000E+01 0.57797470E+02</pdfrwt>
<pdfrwt beam="2">  1       22 0.30318493E+00 0.57797470E+02</pdfrwt>
<totfact> 0.20445123E-01</totfact>
</mgrwt>
</event>
<event>
 4    1  0.2486873E+000  0.5368232E+02  0.7957747E-01  0.1426435E+00
         13   -1    0    0    0    0  0.00000000000E+00  0.00000000000E+00  0.99999944177E+02  0.99999999998E+02  0.10566000000E+00 0.  1.
         22   -1    0    0    0    0 -0.00000000000E+00 -0.00000000000E+00 -0.18992212033E+02  0.18992212033E+02  0.00000000000E+00 0.  1.
         13    1    1    2    0    0  0.13939271503E+02 -0.13692641708E+02 -0.25197434257E+01  0.19701573489E+02  0.10566000000E+00 0. -1.
        996    1    1    2    0    0 -0.13939271503E+02  0.13692641708E+02  0.83527475570E+02  0.99290638542E+02  0.50000000000E+02 0.  0.
<mgrwt>
<rscale>  0 0.53682322E+02</rscale>
<asrwt>0</asrwt>
<pdfrwt beam="1">  1       13 0.10000000E+01 0.53682322E+02</pdfrwt>
<pdfrwt beam="2">  1       22 0.18992235E+00 0.53682322E+02</pdfrwt>
<totfact> 0.50002848E-01</totfact>
</mgrwt>
</event>
<event>
 4    1  0.2486873E+000  0.5413594E+02  0.7957747E-01  0.1424230E+00
         13   -1    0    0    0    0  0.00000000000E+00  0.00000000000E+00  0.99999944184E+02  0.10000000000E+03  0.10566000000E+00 0. -1.
         22   -1    0    0    0    0 -0.00000000000E+00 -0.00000000000E+00 -0.21504281051E+02  0.21504281051E+02  0.00000000000E+00 0.  1.
         13    1    1    2    0    0  0.31144195874E+01  0.20518292547E+02 -0.55950422753E+01  0.21494548157E+02  0.10566000000E+00 0.  1.
        996    1    1    2    0    0 -0.31144195874E+01 -0.20518292547E+02  0.84090705408E+02  0.10000973290E+03  0.50000000000E+02 0.  0.
<mgrwt>
<rscale>  0 0.54135939E+02</rscale>
<asrwt>0</asrwt>
<pdfrwt beam="1">  1       13 0.10000000E+01 0.54135939E+02</pdfrwt>
<pdfrwt beam="2">  1       22 0.21504303E+00 0.54135939E+02</pdfrwt>
<totfact> 0.39652472E-01</totfact>
</mgrwt>
</event>
<event>
 4    1  0.2486873E+000  0.5528654E+02  0.7957747E-01  0.1418749E+00
         13   -1    0    0    0    0  0.00000000000E+00  0.00000000000E+00  0.99999944178E+02  0.99999999999E+02  0.10566000000E+00 0.  1.
         22   -1    0    0    0    0 -0.00000000000E+00 -0.00000000000E+00 -0.17506747519E+02  0.17506747519E+02  0.00000000000E+00 0. -1.
         13    1    1    2    0    0 -0.19971839651E+02 -0.12558938231E+02  0.83644829483E+01  0.25031521079E+02  0.10566000000E+00 0. -1.
        996    1    1    2    0    0  0.19971839651E+02  0.12558938231E+02  0.74128713711E+02  0.92475226439E+02  0.50000000000E+02 0.  0.
<mgrwt>
<rscale>  0 0.55286538E+02</rscale>
<asrwt>0</asrwt>
<pdfrwt beam="1">  1       13 0.10000000E+01 0.55286538E+02</pdfrwt>
<pdfrwt beam="2">  1       22 0.17506771E+00 0.55286538E+02</pdfrwt>
<totfact> 0.58082802E-01</totfact>
</mgrwt>
</event>
<event>
 4    1  0.2486873E+000  0.5739961E+02  0.7957747E-01  0.1409080E+00
         13   -1    0    0    0    0  0.00000000000E+00  0.00000000000E+00  0.99999944173E+02  0.99999999993E+02  0.10566000000E+00 0. -1.
         22   -1    0    0    0    0 -0.00000000000E+00 -0.00000000000E+00 -0.21088053366E+02  0.21088053366E+02  0.00000000000E+00 0.  1.
         13    1    1    2    0    0  0.28188109439E+02  0.38177295587E+00  0.69445640650E+01  0.29033659749E+02  0.10566000000E+00 0.  1.
        996    1    1    2    0    0 -0.28188109439E+02 -0.38177295587E+00  0.71967326742E+02  0.92054393609E+02  0.50000000000E+02 0.  0.
<mgrwt>
<rscale>  0 0.57399610E+02</rscale>
<asrwt>0</asrwt>
<pdfrwt beam="1">  1       13 0.10000000E+01 0.57399610E+02</pdfrwt>
<pdfrwt beam="2">  1       22 0.21088075E+00 0.57399610E+02</pdfrwt>
<totfact> 0.41376026E-01</totfact>
</mgrwt>
</event>
<event>
 4    1  0.2486873E+000  0.7204244E+02  0.7957747E-01  0.1353282E+00
         13   -1    0    0    0    0  0.00000000000E+00  0.00000000000E+00  0.99999944179E+02  0.99999999999E+02  0.10566000000E+00 0. -1.
         22   -1    0    0    0    0 -0.00000000000E+00 -0.00000000000E+00 -0.43411407470E+02  0.43411407470E+02  0.00000000000E+00 0.  1.
         13    1    1    2    0    0 -0.44555289285E+02  0.26550688201E+02  0.10530929809E+00  0.51866512331E+02  0.10566000000E+00 0.  1.
        996    1    1    2    0    0  0.44555289285E+02 -0.26550688201E+02  0.56483227411E+02  0.91544895139E+02  0.50000000000E+02 0.  0.
<mgrwt>
<rscale>  0 0.72042438E+02</rscale>
<asrwt>0</asrwt>
<pdfrwt beam="1">  1       13 0.10000000E+01 0.72042438E+02</pdfrwt>
<pdfrwt beam="2">  1       22 0.43411423E+00 0.72042438E+02</pdfrwt>
<totfact> 0.10593849E-01</totfact>
</mgrwt>
</event>
<event>
 4    1  0.2486873E+000  0.5140787E+02  0.7957747E-01  0.1437893E+00
         13   -1    0    0    0    0  0.00000000000E+00  0.00000000000E+00  0.99999944180E+02  0.10000000000E+03  0.10566000000E+00 0. -1.
         22   -1    0    0    0    0 -0.00000000000E+00 -0.00000000000E+00 -0.26608201698E+02  0.26608201698E+02  0.00000000000E+00 0.  1.
         13    1    1    2    0    0 -0.10007500224E+02  0.65283338663E+01 -0.18085028013E+02  0.21675991467E+02  0.10566000000E+00 0.  1.
        996    1    1    2    0    0  0.10007500224E+02 -0.65283338663E+01  0.91476770495E+02  0.10493221023E+03  0.50000000000E+02 0.  0.
<mgrwt>
<rscale>  0 0.51407871E+02</rscale>
<asrwt>0</asrwt>
<pdfrwt beam="1">  1       13 0.10000000E+01 0.51407871E+02</pdfrwt>
<pdfrwt beam="2">  1       22 0.26608222E+00 0.51407871E+02</pdfrwt>
<totfact> 0.26054991E-01</totfact>
</mgrwt>
</event>
<event>
 4    1  0.2486873E+000  0.6465309E+02  0.7957747E-01  0.1379281E+00
         13   -1    0    0    0    0  0.00000000000E+00  0.00000000000E+00  0.99999944170E+02  0.99999999990E+02  0.10566000000E+00 0.  1.
         22   -1    0    0    0    0 -0.00000000000E+00 -0.00000000000E+00 -0.28155416569E+02  0.28155416569E+02  0.00000000000E+00 0.  1.
         13    1    1    2    0    0  0.16295043800E+02 -0.37609751246E+02  0.22000966487E+02  0.46519625231E+02  0.10566000000E+00 0. -1.
        996    1    1    2    0    0 -0.16295043800E+02  0.37609751246E+02  0.49843561114E+02  0.81635791328E+02  0.50000000000E+02 0.  0.
<mgrwt>
<rscale>  0 0.64653088E+02</rscale>
<asrwt>0</asrwt>
<pdfrwt beam="1">  1       13 0.10000000E+01 0.64653088E+02</pdfrwt>
<pdfrwt beam="2">  1       22 0.28155437E+00 0.64653088E+02</pdfrwt>
<totfact> 0.23734349E-01</totfact>
</mgrwt>
</event>
<event>
 4    1  0.2486873E+000  0.5120784E+02  0.7957747E-01  0.1438934E+00
         13   -1    0    0    0    0  0.00000000000E+00  0.00000000000E+00  0.99999944180E+02  0.10000000000E+03  0.10566000000E+00 0. -1.
         22   -1    0    0    0    0 -0.00000000000E+00 -0.00000000000E+00 -0.10643434934E+02  0.10643434934E+02  0.00000000000E+00 0. -1.
         13    1    1    2    0    0  0.14305110580E+01 -0.10963414560E+02  0.54061079144E+01  0.12307720647E+02  0.10566000000E+00 0.  1.
        996    1    1    2    0    0 -0.14305110580E+01  0.10963414560E+02  0.83950401331E+02  0.98335714287E+02  0.50000000000E+02 0.  0.
<mgrwt>
<rscale>  0 0.51207839E+02</rscale>
<asrwt>0</asrwt>
<pdfrwt beam="1">  1       13 0.10000000E+01 0.51207839E+02</pdfrwt>
<pdfrwt beam="2">  1       22 0.10643460E+00 0.51207839E+02</pdfrwt>
<totfact> 0.12846149E+00</totfact>
</mgrwt>
</event>
<event>
 4    1  0.2486873E+000  0.6521293E+02  0.7957747E-01  0.1377172E+00
         13   -1    0    0    0    0  0.00000000000E+00  0.00000000000E+00  0.99999944178E+02  0.99999999998E+02  0.10566000000E+00 0. -1.
         22   -1    0    0    0    0 -0.00000000000E+00 -0.00000000000E+00 -0.53968699311E+02  0.53968699311E+02  0.00000000000E+00 0.  1.
         13    1    1    2    0    0  0.23794259729E+02  0.34446476591E+02 -0.31694105644E+02  0.52509561436E+02  0.10566000000E+00 0.  1.
        996    1    1    2    0    0 -0.23794259729E+02 -0.34446476591E+02  0.77725350511E+02  0.10145913787E+03  0.50000000000E+02 0.  0.
<mgrwt>
<rscale>  0 0.65212932E+02</rscale>
<asrwt>0</asrwt>
<pdfrwt beam="1">  1       13 0.10000000E+01 0.65212932E+02</pdfrwt>
<pdfrwt beam="2">  1       22 0.53968712E+00 0.65212932E+02</pdfrwt>
<totfact> 0.60917190E-02</totfact>
</mgrwt>
</event>
<event>
 4    1  0.2486873E+000  0.5309760E+02  0.7957747E-01  0.1429316E+00
         13   -1    0    0    0    0  0.00000000000E+00  0.00000000000E+00  0.99999944178E+02  0.99999999999E+02  0.10566000000E+00 0.  1.
         22   -1    0    0    0    0 -0.00000000000E+00 -0.00000000000E+00 -0.14125199553E+02  0.14125199553E+02  0.00000000000E+00 0. -1.
         13    1    1    2    0    0  0.88585111704E+01  0.15520373826E+02  0.73274880849E+01  0.19314721575E+02  0.10566000000E+00 0. -1.
        996    1    1    2    0    0 -0.88585111704E+01 -0.15520373826E+02  0.78547256541E+02  0.94810477976E+02  0.50000000000E+02 0.  0.
<mgrwt>
<rscale>  0 0.53097601E+02</rscale>
<asrwt>0</asrwt>
<pdfrwt beam="1">  1       13 0.10000000E+01 0.53097601E+02</pdfrwt>
<pdfrwt beam="2">  1       22 0.14125224E+00 0.53097601E+02</pdfrwt>
<totfact> 0.83306713E-01</totfact>
</mgrwt>
</event>
<event>
 4    1  0.2486873E+000  0.5140959E+02  0.7957747E-01  0.1437884E+00
         13   -1    0    0    0    0  0.00000000000E+00  0.00000000000E+00  0.99999944184E+02  0.10000000000E+03  0.10566000000E+00 0. -1.
         22   -1    0    0    0    0 -0.00000000000E+00 -0.00000000000E+00 -0.22528789025E+02  0.22528789025E+02  0.00000000000E+00 0.  1.
         13    1    1    2    0    0  0.88694100406E+01 -0.80174655835E+01 -0.13501675044E+02  0.18034760378E+02  0.10566000000E+00 0.  1.
        996    1    1    2    0    0 -0.88694100406E+01  0.80174655835E+01  0.90972830203E+02  0.10449402865E+03  0.50000000000E+02 0.  0.
<mgrwt>
<rscale>  0 0.51409592E+02</rscale>
<asrwt>0</asrwt>
<pdfrwt beam="1">  1       13 0.10000000E+01 0.51409592E+02</pdfrwt>
<pdfrwt beam="2">  1       22 0.22528811E+00 0.51409592E+02</pdfrwt>
<totfact> 0.36091561E-01</totfact>
</mgrwt>
</event>
<event>
 4    1  0.2486873E+000  0.5559429E+02  0.7957747E-01  0.1417309E+00
         13   -1    0    0    0    0  0.00000000000E+00  0.00000000000E+00  0.99999944180E+02  0.10000000000E+03  0.10566000000E+00 0. -1.
         22   -1    0    0    0    0 -0.00000000000E+00 -0.00000000000E+00 -0.24455379263E+02  0.24455379263E+02  0.00000000000E+00 0.  1.
         13    1    1    2    0    0  0.19501438120E+01 -0.24226475898E+02 -0.66743359294E+01  0.25204823337E+02  0.10566000000E+00 0.  1.
        996    1    1    2    0    0 -0.19501438120E+01  0.24226475898E+02  0.82218900846E+02  0.99250555926E+02  0.50000000000E+02 0.  0.
<mgrwt>
<rscale>  0 0.55594291E+02</rscale>
<asrwt>0</asrwt>
<pdfrwt beam="1">  1       13 0.10000000E+01 0.55594291E+02</pdfrwt>
<pdfrwt beam="2">  1       22 0.24455400E+00 0.55594291E+02</pdfrwt>
<totfact> 0.30954303E-01</totfact>
</mgrwt>
</event>
<event>
 4    1  0.2486873E+000  0.6742860E+02  0.7957747E-01  0.1369062E+00
         13   -1    0    0    0    0  0.00000000000E+00  0.00000000000E+00  0.99999944187E+02  0.10000000001E+03  0.10566000000E+00 0.  1.
         22   -1    0    0    0    0 -0.00000000000E+00 -0.00000000000E+00 -0.32159700600E+02  0.32159700600E+02  0.00000000000E+00 0. -1.
         13    1    1    2    0    0  0.10108297642E+02  0.44095787206E+02  0.34772149444E+02  0.57059001670E+02  0.10566000000E+00 0. -1.
        996    1    1    2    0    0 -0.10108297642E+02 -0.44095787206E+02  0.33068094143E+02  0.75100698937E+02  0.50000000000E+02 0.  0.
<mgrwt>
<rscale>  0 0.67428600E+02</rscale>
<asrwt>0</asrwt>
<pdfrwt beam="1">  1       13 0.10000000E+01 0.67428600E+02</pdfrwt>
<pdfrwt beam="2">  1       22 0.32159720E+00 0.67428600E+02</pdfrwt>
<totfact> 0.18530289E-01</totfact>
</mgrwt>
</event>
<event>
 4    1  0.2486873E+000  0.5346687E+02  0.7957747E-01  0.1427491E+00
         13   -1    0    0    0    0  0.00000000000E+00  0.00000000000E+00  0.99999944180E+02  0.10000000000E+03  0.10566000000E+00 0.  1.
         22   -1    0    0    0    0 -0.00000000000E+00 -0.00000000000E+00 -0.32742677204E+02  0.32742677204E+02  0.00000000000E+00 0.  1.
         13    1    1    2    0    0 -0.97893672118E+01 -0.16213406976E+02 -0.21793733788E+02  0.28873591267E+02  0.10566000000E+00 0. -1.
        996    1    1    2    0    0  0.97893672118E+01  0.16213406976E+02  0.89051000765E+02  0.10386908594E+03  0.50000000000E+02 0.  0.
<mgrwt>
<rscale>  0 0.53466871E+02</rscale>
<asrwt>0</asrwt>
<pdfrwt beam="1">  1       13 0.10000000E+01 0.53466871E+02</pdfrwt>
<pdfrwt beam="2">  1       22 0.32742696E+00 0.53466871E+02</pdfrwt>
<totfact> 0.17691254E-01</totfact>
</mgrwt>
</event>
<event>
 4    1  0.2486873E+000  0.5204679E+02  0.7957747E-01  0.1434604E+00
         13   -1    0    0    0    0  0.00000000000E+00  0.00000000000E+00  0.99999944183E+02  0.10000000000E+03  0.10566000000E+00 0. -1.
         22   -1    0    0    0    0 -0.00000000000E+00 -0.00000000000E+00 -0.28355477711E+02  0.28355477711E+02  0.00000000000E+00 0.  1.
         13    1    1    2    0    0 -0.13207666246E+02 -0.58673492471E+01 -0.18975482908E+02  0.23852638229E+02  0.10566000000E+00 0.  1.
        996    1    1    2    0    0  0.13207666246E+02  0.58673492471E+01  0.90619949380E+02  0.10450283948E+03  0.50000000000E+02 0.  0.
<mgrwt>
<rscale>  0 0.52046789E+02</rscale>
<asrwt>0</asrwt>
<pdfrwt beam="1">  1       13 0.10000000E+01 0.52046789E+02</pdfrwt>
<pdfrwt beam="2">  1       22 0.28355498E+00 0.52046789E+02</pdfrwt>
<totfact> 0.23044091E-01</totfact>
</mgrwt>
</event>
<event>
 4    1  0.2486873E+000  0.5615618E+02  0.7957747E-01  0.1414709E+00
         13   -1    0    0    0    0  0.00000000000E+00  0.00000000000E+00  0.99999944176E+02  0.99999999996E+02  0.10566000000E+00 0.  1.
         22   -1    0    0    0    0 -0.00000000000E+00 -0.00000000000E+00 -0.24839035873E+02  0.24839035873E+02  0.00000000000E+00 0. -1.
         13    1    1    2    0    0 -0.19222787074E+02 -0.16852331950E+02 -0.58909567884E+01  0.26234160382E+02  0.10566000000E+00 0. -1.
        996    1    1    2    0    0  0.19222787074E+02  0.16852331950E+02  0.81051865091E+02  0.98604875487E+02  0.50000000000E+02 0.  0.
<mgrwt>
<rscale>  0 0.56156181E+02</rscale>
<asrwt>0</asrwt>
<pdfrwt beam="1">  1       13 0.10000000E+01 0.56156181E+02</pdfrwt>
<pdfrwt beam="2">  1       22 0.24839057E+00 0.56156181E+02</pdfrwt>
<totfact> 0.30044624E-01</totfact>
</mgrwt>
</event>
<event>
 4    1  0.2486873E+000  0.6050320E+02  0.7957747E-01  0.1395732E+00
         13   -1    0    0    0    0  0.00000000000E+00  0.00000000000E+00  0.99999944176E+02  0.99999999996E+02  0.10566000000E+00 0. -1.
         22   -1    0    0    0    0 -0.00000000000E+00 -0.00000000000E+00 -0.35461390714E+02  0.35461390714E+02  0.00000000000E+00 0.  1.
         13    1    1    2    0    0  0.24921782160E+02  0.23228041487E+02 -0.13560731075E+02  0.36667993245E+02  0.10566000000E+00 0.  1.
        996    1    1    2    0    0 -0.24921782160E+02 -0.23228041487E+02  0.78099284538E+02  0.98793397465E+02  0.50000000000E+02 0.  0.
<mgrwt>
<rscale>  0 0.60503199E+02</rscale>
<asrwt>0</asrwt>
<pdfrwt beam="1">  1       13 0.10000000E+01 0.60503199E+02</pdfrwt>
<pdfrwt beam="2">  1       22 0.35461409E+00 0.60503199E+02</pdfrwt>
<totfact> 0.15482251E-01</totfact>
</mgrwt>
</event>
<event>
 4    1  0.2486873E+000  0.5997529E+02  0.7957747E-01  0.1397935E+00
         13   -1    0    0    0    0  0.00000000000E+00  0.00000000000E+00  0.99999944181E+02  0.10000000000E+03  0.10566000000E+00 0. -1.
         22   -1    0    0    0    0 -0.00000000000E+00 -0.00000000000E+00 -0.23524962794E+02  0.23524962794E+02  0.00000000000E+00 0. -1.
         13    1    1    2    0    0 -0.31321570136E+02  0.10770082542E+02  0.11402646242E+02  0.35029515257E+02  0.10566000000E+00 0.  1.
        996    1    1    2    0    0  0.31321570136E+02 -0.10770082542E+02  0.65072335145E+02  0.88495447538E+02  0.50000000000E+02 0.  0.
<mgrwt>
<rscale>  0 0.59975290E+02</rscale>
<asrwt>0</asrwt>
<pdfrwt beam="1">  1       13 0.10000000E+01 0.59975290E+02</pdfrwt>
<pdfrwt beam="2">  1       22 0.23524984E+00 0.59975290E+02</pdfrwt>
<totfact> 0.33616905E-01</totfact>
</mgrwt>
</event>
<event>
 4    1  0.2486873E+000  0.5244231E+02  0.7957747E-01  0.1432597E+00
         13   -1    0    0    0    0  0.00000000000E+00  0.00000000000E+00  0.99999944185E+02  0.10000000001E+03  0.10566000000E+00 0.  1.
         22   -1    0    0    0    0 -0.00000000000E+00 -0.00000000000E+00 -0.11660802190E+02  0.11660802190E+02  0.00000000000E+00 0.  1.
         13    1    1    2    0    0  0.73231757469E+01  0.14020242380E+02  0.18973096437E+02  0.24701936196E+02  0.10566000000E+00 0. -1.
        996    1    1    2    0    0 -0.73231757469E+01 -0.14020242380E+02  0.69366045559E+02  0.86958865999E+02  0.50000000000E+02 0.  0.
<mgrwt>
<rscale>  0 0.52442312E+02</rscale>
<asrwt>0</asrwt>
<pdfrwt beam="1">  1       13 0.10000000E+01 0.52442312E+02</pdfrwt>
<pdfrwt beam="2">  1       22 0.11660827E+00 0.52442312E+02</pdfrwt>
<totfact> 0.11240538E+00</totfact>
</mgrwt>
</event>
<event>
 4    1  0.2486873E+000  0.5178317E+02  0.7957747E-01  0.1435954E+00
         13   -1    0    0    0    0  0.00000000000E+00  0.00000000000E+00  0.99999944175E+02  0.99999999996E+02  0.10566000000E+00 0.  1.
         22   -1    0    0    0    0 -0.00000000000E+00 -0.00000000000E+00 -0.48102890684E+02  0.48102890684E+02  0.00000000000E+00 0. -1.
         13    1    1    2    0    0  0.92892458487E+01  0.97573934957E+01 -0.40226687708E+02  0.42422805002E+02  0.10566000000E+00 0. -1.
        996    1    1    2    0    0 -0.92892458487E+01 -0.97573934957E+01  0.92123741199E+02  0.10568008568E+03  0.50000000000E+02 0.  0.
<mgrwt>
<rscale>  0 0.51783171E+02</rscale>
<asrwt>0</asrwt>
<pdfrwt beam="1">  1       13 0.10000000E+01 0.51783171E+02</pdfrwt>
<pdfrwt beam="2">  1       22 0.48102905E+00 0.51783171E+02</pdfrwt>
<totfact> 0.81781764E-02</totfact>
</mgrwt>
</event>
<event>
 4    1  0.2486873E+000  0.6852792E+02  0.7957747E-01  0.1365172E+00
         13   -1    0    0    0    0  0.00000000000E+00  0.00000000000E+00  0.99999944183E+02  0.10000000000E+03  0.10566000000E+00 0.  1.
         22   -1    0    0    0    0 -0.00000000000E+00 -0.00000000000E+00 -0.33674429186E+02  0.33674429186E+02  0.00000000000E+00 0. -1.
         13    1    1    2    0    0  0.43947022743E+02  0.16270684705E+02  0.19967530083E+02  0.50939075476E+02  0.10566000000E+00 0. -1.
        996    1    1    2    0    0 -0.43947022743E+02 -0.16270684705E+02  0.46357984914E+02  0.82735353713E+02  0.50000000000E+02 0.  0.
<mgrwt>
<rscale>  0 0.68527921E+02</rscale>
<asrwt>0</asrwt>
<pdfrwt beam="1">  1       13 0.10000000E+01 0.68527921E+02</pdfrwt>
<pdfrwt beam="2">  1       22 0.33674448E+00 0.68527921E+02</pdfrwt>
<totfact> 0.17078812E-01</totfact>
</mgrwt>
</event>
<event>
 4    1  0.2486873E+000  0.5121445E+02  0.7957747E-01  0.1438899E+00
         13   -1    0    0    0    0  0.00000000000E+00  0.00000000000E+00  0.99999944183E+02  0.10000000000E+03  0.10566000000E+00 0.  1.
         22   -1    0    0    0    0 -0.00000000000E+00 -0.00000000000E+00 -0.98798158481E+01  0.98798158481E+01  0.00000000000E+00 0.  1.
         13    1    1    2    0    0  0.81648081136E+01  0.75003745550E+01  0.10909962090E+02  0.15555003917E+02  0.10566000000E+00 0. -1.
        996    1    1    2    0    0 -0.81648081136E+01 -0.75003745550E+01  0.79210166245E+02  0.94324811935E+02  0.50000000000E+02 0.  0.
<mgrwt>
<rscale>  0 0.51214448E+02</rscale>
<asrwt>0</asrwt>
<pdfrwt beam="1">  1       13 0.10000000E+01 0.51214448E+02</pdfrwt>
<pdfrwt beam="2">  1       22 0.98798410E-01 0.51214448E+02</pdfrwt>
<totfact> 0.14319240E+00</totfact>
</mgrwt>
</event>
<event>
 4    1  0.2486873E+000  0.5173910E+02  0.7957747E-01  0.1436181E+00
         13   -1    0    0    0    0  0.00000000000E+00  0.00000000000E+00  0.99999944182E+02  0.10000000000E+03  0.10566000000E+00 0. -1.
         22   -1    0    0    0    0 -0.00000000000E+00 -0.00000000000E+00 -0.14701940781E+02  0.14701940781E+02  0.00000000000E+00 0.  1.
         13    1    1    2    0    0 -0.89615655227E+01  0.98297674430E+01 -0.17719855102E+01  0.13419578283E+02  0.10566000000E+00 0.  1.
        996    1    1    2    0    0  0.89615655227E+01 -0.98297674430E+01  0.87069988911E+02  0.10128236250E+03  0.50000000000E+02 0.  0.
<mgrwt>
<rscale>  0 0.51739095E+02</rscale>
<asrwt>0</asrwt>
<pdfrwt beam="1">  1       13 0.10000000E+01 0.51739095E+02</pdfrwt>
<pdfrwt beam="2">  1       22 0.14701965E+00 0.51739095E+02</pdfrwt>
<totfact> 0.77798853E-01</totfact>
</mgrwt>
</event>
<event>
 4    1  0.2486873E+000  0.8704351E+02  0.7957747E-01  0.1310173E+00
         13   -1    0    0    0    0  0.00000000000E+00  0.00000000000E+00  0.99999944176E+02  0.99999999996E+02  0.10566000000E+00 0. -1.
         22   -1    0    0    0    0 -0.00000000000E+00 -0.00000000000E+00 -0.65984676571E+02  0.65984676571E+02  0.00000000000E+00 0.  1.
         13    1    1    2    0    0 -0.69285741974E+02 -0.16615015532E+02 -0.31937085224E+01  0.71321691792E+02  0.10566000000E+00 0.  1.
        996    1    1    2    0    0  0.69285741974E+02  0.16615015532E+02  0.37208976128E+02  0.94662984775E+02  0.50000000000E+02 0.  0.
<mgrwt>
<rscale>  0 0.87043511E+02</rscale>
<asrwt>0</asrwt>
<pdfrwt beam="1">  1       13 0.10000000E+01 0.87043511E+02</pdfrwt>
<pdfrwt beam="2">  1       22 0.65984686E+00 0.87043511E+02</pdfrwt>
<totfact> 0.87278659E-02</totfact>
</mgrwt>
</event>
<event>
 4    1  0.2486873E+000  0.5256327E+02  0.7957747E-01  0.1431987E+00
         13   -1    0    0    0    0  0.00000000000E+00  0.00000000000E+00  0.99999944178E+02  0.99999999998E+02  0.10566000000E+00 0. -1.
         22   -1    0    0    0    0 -0.00000000000E+00 -0.00000000000E+00 -0.31486266458E+02  0.31486266458E+02  0.00000000000E+00 0.  1.
         13    1    1    2    0    0  0.81830935187E+01 -0.13997649364E+02 -0.21692649201E+02  0.27082824828E+02  0.10566000000E+00 0.  1.
        996    1    1    2    0    0 -0.81830935187E+01  0.13997649364E+02  0.90206326921E+02  0.10440344163E+03  0.50000000000E+02 0.  0.
<mgrwt>
<rscale>  0 0.52563269E+02</rscale>
<asrwt>0</asrwt>
<pdfrwt beam="1">  1       13 0.10000000E+01 0.52563269E+02</pdfrwt>
<pdfrwt beam="2">  1       22 0.31486286E+00 0.52563269E+02</pdfrwt>
<totfact> 0.18955499E-01</totfact>
</mgrwt>
</event>
<event>
 4    1  0.2486873E+000  0.5560941E+02  0.7957747E-01  0.1417239E+00
         13   -1    0    0    0    0  0.00000000000E+00  0.00000000000E+00  0.99999944185E+02  0.10000000001E+03  0.10566000000E+00 0. -1.
         22   -1    0    0    0    0 -0.00000000000E+00 -0.00000000000E+00 -0.32524761846E+02  0.32524761846E+02  0.00000000000E+00 0.  1.
         13    1    1    2    0    0  0.23698506862E+02 -0.55486645587E+01 -0.18194924996E+02  0.30388704571E+02  0.10566000000E+00 0.  1.
        996    1    1    2    0    0 -0.23698506862E+02  0.55486645587E+01  0.85670107335E+02  0.10213605728E+03  0.50000000000E+02 0.  0.
<mgrwt>
<rscale>  0 0.55609414E+02</rscale>
<asrwt>0</asrwt>
<pdfrwt beam="1">  1       13 0.10000000E+01 0.55609414E+02</pdfrwt>
<pdfrwt beam="2">  1       22 0.32524781E+00 0.55609414E+02</pdfrwt>
<totfact> 0.17945337E-01</totfact>
</mgrwt>
</event>
<event>
 4    1  0.2486873E+000  0.7043558E+02  0.7957747E-01  0.1358618E+00
         13   -1    0    0    0    0  0.00000000000E+00  0.00000000000E+00  0.99999944171E+02  0.99999999991E+02  0.10566000000E+00 0.  1.
         22   -1    0    0    0    0 -0.00000000000E+00 -0.00000000000E+00 -0.53785271615E+02  0.53785271615E+02  0.00000000000E+00 0. -1.
         13    1    1    2    0    0  0.27301069470E+02 -0.41422492795E+02 -0.23312357452E+02  0.54814673925E+02  0.10566000000E+00 0. -1.
        996    1    1    2    0    0 -0.27301069470E+02  0.41422492795E+02  0.69527030008E+02  0.98970597681E+02  0.50000000000E+02 0.  0.
<mgrwt>
<rscale>  0 0.70435583E+02</rscale>
<asrwt>0</asrwt>
<pdfrwt beam="1">  1       13 0.10000000E+01 0.70435583E+02</pdfrwt>
<pdfrwt beam="2">  1       22 0.53785285E+00 0.70435583E+02</pdfrwt>
<totfact> 0.61417362E-02</totfact>
</mgrwt>
</event>
<event>
 4    1  0.2486873E+000  0.5324908E+02  0.7957747E-01  0.1428565E+00
         13   -1    0    0    0    0  0.00000000000E+00  0.00000000000E+00  0.99999944183E+02  0.10000000000E+03  0.10566000000E+00 0. -1.
         22   -1    0    0    0    0 -0.00000000000E+00 -0.00000000000E+00 -0.22158201064E+02  0.22158201064E+02  0.00000000000E+00 0. -1.
         13    1    1    2    0    0  0.18276254985E+02 -0.12013011181E+01 -0.89095170405E+01  0.20367996430E+02  0.10566000000E+00 0.  1.
        996    1    1    2    0    0 -0.18276254985E+02  0.12013011181E+01  0.86751260160E+02  0.10179020464E+03  0.50000000000E+02 0.  0.
<mgrwt>
<rscale>  0 0.53249081E+02</rscale>
<asrwt>0</asrwt>
<pdfrwt beam="1">  1       13 0.10000000E+01 0.53249081E+02</pdfrwt>
<pdfrwt beam="2">  1       22 0.22158223E+00 0.53249081E+02</pdfrwt>
<totfact> 0.37381358E-01</totfact>
</mgrwt>
</event>
<event>
 4    1  0.2486873E+000  0.5221785E+02  0.7957747E-01  0.1433733E+00
         13   -1    0    0    0    0  0.00000000000E+00  0.00000000000E+00  0.99999944180E+02  0.10000000000E+03  0.10566000000E+00 0. -1.
         22   -1    0    0    0    0 -0.00000000000E+00 -0.00000000000E+00 -0.20335269559E+02  0.20335269559E+02  0.00000000000E+00 0.  1.
         13    1    1    2    0    0 -0.80080690422E+01 -0.12750466611E+02 -0.89234096918E+01  0.17502627607E+02  0.10566000000E+00 0.  1.
        996    1    1    2    0    0  0.80080690422E+01  0.12750466611E+02  0.88588084313E+02  0.10283264195E+03  0.50000000000E+02 0.  0.
<mgrwt>
<rscale>  0 0.52217847E+02</rscale>
<asrwt>0</asrwt>
<pdfrwt beam="1">  1       13 0.10000000E+01 0.52217847E+02</pdfrwt>
<pdfrwt beam="2">  1       22 0.20335292E+00 0.52217847E+02</pdfrwt>
<totfact> 0.43937411E-01</totfact>
</mgrwt>
</event>
<event>
 4    1  0.2486873E+000  0.5695364E+02  0.7957747E-01  0.1411080E+00
         13   -1    0    0    0    0  0.00000000000E+00  0.00000000000E+00  0.99999944180E+02  0.10000000000E+03  0.10566000000E+00 0.  1.
         22   -1    0    0    0    0 -0.00000000000E+00 -0.00000000000E+00 -0.23370241748E+02  0.23370241748E+02  0.00000000000E+00 0. -1.
         13    1    1    2    0    0  0.22391266305E+02 -0.15567555427E+02 -0.76044148032E+00  0.27281990836E+02  0.10566000000E+00 0. -1.
        996    1    1    2    0    0 -0.22391266305E+02  0.15567555427E+02  0.77390143912E+02  0.96088250912E+02  0.50000000000E+02 0.  0.
<mgrwt>
<rscale>  0 0.56953644E+02</rscale>
<asrwt>0</asrwt>
<pdfrwt beam="1">  1       13 0.10000000E+01 0.56953644E+02</pdfrwt>
<pdfrwt beam="2">  1       22 0.23370263E+00 0.56953644E+02</pdfrwt>
<totfact> 0.33905518E-01</totfact>
</mgrwt>
</event>
<event>
 4    1  0.2486873E+000  0.6395723E+02  0.7957747E-01  0.1381937E+00
         13   -1    0    0    0    0  0.00000000000E+00  0.00000000000E+00  0.99999944180E+02  0.10000000000E+03  0.10566000000E+00 0. -1.
         22   -1    0    0    0    0 -0.00000000000E+00 -0.00000000000E+00 -0.32445166217E+02  0.32445166217E+02  0.00000000000E+00 0.  1.
         13    1    1    2    0    0  0.37623916610E+02  0.13227543649E+02  0.64796735742E+00  0.39886815338E+02  0.10566000000E+00 0.  1.
        996    1    1    2    0    0 -0.37623916610E+02 -0.13227543649E+02  0.66906810606E+02  0.92558350879E+02  0.50000000000E+02 0.  0.
<mgrwt>
<rscale>  0 0.63957228E+02</rscale>
<asrwt>0</asrwt>
<pdfrwt beam="1">  1       13 0.10000000E+01 0.63957228E+02</pdfrwt>
<pdfrwt beam="2">  1       22 0.32445185E+00 0.63957228E+02</pdfrwt>
<totfact> 0.18178302E-01</totfact>
</mgrwt>
</event>
<event>
 4    1  0.2486873E+000  0.5360810E+02  0.7957747E-01  0.1426798E+00
         13   -1    0    0    0    0  0.00000000000E+00  0.00000000000E+00  0.99999944173E+02  0.99999999994E+02  0.10566000000E+00 0. -1.
         22   -1    0    0    0    0 -0.00000000000E+00 -0.00000000000E+00 -0.25952283481E+02  0.25952283481E+02  0.00000000000E+00 0.  1.
         13    1    1    2    0    0  0.19334538252E+02 -0.67181068802E-01 -0.13298830305E+02  0.23466975395E+02  0.10566000000E+00 0.  1.
        996    1    1    2    0    0 -0.19334538252E+02  0.67181068802E-01  0.87346490997E+02  0.10248530808E+03  0.50000000000E+02 0.  0.
<mgrwt>
<rscale>  0 0.53608105E+02</rscale>
<asrwt>0</asrwt>
<pdfrwt beam="1">  1       13 0.10000000E+01 0.53608105E+02</pdfrwt>
<pdfrwt beam="2">  1       22 0.25952304E+00 0.53608105E+02</pdfrwt>
<totfact> 0.27454836E-01</totfact>
</mgrwt>
</event>
<event>
 4    1  0.2486873E+000  0.5519389E+02  0.7957747E-01  0.1419184E+00
         13   -1    0    0    0    0  0.00000000000E+00  0.00000000000E+00  0.99999944170E+02  0.99999999990E+02  0.10566000000E+00 0. -1.
         22   -1    0    0    0    0 -0.00000000000E+00 -0.00000000000E+00 -0.18088370385E+02  0.18088370385E+02  0.00000000000E+00 0.  1.
         13    1    1    2    0    0 -0.19200182741E+02 -0.13331110861E+02  0.58227281709E+01  0.24089019521E+02  0.10566000000E+00 0.  1.
        996    1    1    2    0    0  0.19200182741E+02  0.13331110861E+02  0.76088845614E+02  0.93999350854E+02  0.50000000000E+02 0.  0.
<mgrwt>
<rscale>  0 0.55193890E+02</rscale>
<asrwt>0</asrwt>
<pdfrwt beam="1">  1       13 0.10000000E+01 0.55193890E+02</pdfrwt>
<pdfrwt beam="2">  1       22 0.18088393E+00 0.55193890E+02</pdfrwt>
<totfact> 0.54777880E-01</totfact>
</mgrwt>
</event>
<event>
 4    1  0.2486873E+000  0.5234244E+02  0.7957747E-01  0.1433102E+00
         13   -1    0    0    0    0  0.00000000000E+00  0.00000000000E+00  0.99999944178E+02  0.99999999998E+02  0.10566000000E+00 0.  1.
         22   -1    0    0    0    0 -0.00000000000E+00 -0.00000000000E+00 -0.14484252933E+02  0.14484252933E+02  0.00000000000E+00 0.  1.
         13    1    1    2    0    0  0.15042560802E+02  0.36677464891E+01  0.15780906671E+01  0.15563821317E+02  0.10566000000E+00 0. -1.
        996    1    1    2    0    0 -0.15042560802E+02 -0.36677464891E+01  0.83937600578E+02  0.98920431613E+02  0.50000000000E+02 0.  0.
<mgrwt>
<rscale>  0 0.52342440E+02</rscale>
<asrwt>0</asrwt>
<pdfrwt beam="1">  1       13 0.10000000E+01 0.52342440E+02</pdfrwt>
<pdfrwt beam="2">  1       22 0.14484277E+00 0.52342440E+02</pdfrwt>
<totfact> 0.79833474E-01</totfact>
</mgrwt>
</event>
<event>
 4    1  0.2486873E+000  0.5773188E+02  0.7957747E-01  0.1407604E+00
         13   -1    0    0    0    0  0.00000000000E+00  0.00000000000E+00  0.99999944175E+02  0.99999999995E+02  0.10566000000E+00 0.  1.
         22   -1    0    0    0    0 -0.00000000000E+00 -0.00000000000E+00 -0.32973209978E+02  0.32973209978E+02  0.00000000000E+00 0. -1.
         13    1    1    2    0    0 -0.20424730516E+01  0.28788866053E+02 -0.15109549976E+02  0.32577295303E+02  0.10566000000E+00 0. -1.
        996    1    1    2    0    0  0.20424730516E+01 -0.28788866053E+02  0.82136284173E+02  0.10039591467E+03  0.50000000000E+02 0.  0.
<mgrwt>
<rscale>  0 0.57731885E+02</rscale>
<asrwt>0</asrwt>
<pdfrwt beam="1">  1       13 0.10000000E+01 0.57731885E+02</pdfrwt>
<pdfrwt beam="2">  1       22 0.32973229E+00 0.57731885E+02</pdfrwt>
<totfact> 0.17553057E-01</totfact>
</mgrwt>
</event>
<event>
 4    1  0.2486873E+000  0.5151700E+02  0.7957747E-01  0.1437327E+00
         13   -1    0    0    0    0  0.00000000000E+00  0.00000000000E+00  0.99999944186E+02  0.10000000001E+03  0.10566000000E+00 0. -1.
         22   -1    0    0    0    0 -0.00000000000E+00 -0.00000000000E+00 -0.10586825065E+02  0.10586825065E+02  0.00000000000E+00 0.  1.
         13    1    1    2    0    0 -0.11745373589E+02  0.40059612160E+01  0.10050259602E+02  0.15969358413E+02  0.10566000000E+00 0.  1.
        996    1    1    2    0    0  0.11745373589E+02 -0.40059612160E+01  0.79362859519E+02  0.94617466659E+02  0.50000000000E+02 0.  0.
<mgrwt>
<rscale>  0 0.51517002E+02</rscale>
<asrwt>0</asrwt>
<pdfrwt beam="1">  1       13 0.10000000E+01 0.51517002E+02</pdfrwt>
<pdfrwt beam="2">  1       22 0.10586850E+00 0.51517002E+02</pdfrwt>
<totfact> 0.12956895E+00</totfact>
</mgrwt>
</event>
<event>
 4    1  0.2486873E+000  0.5106237E+02  0.7957747E-01  0.1439694E+00
         13   -1    0    0    0    0  0.00000000000E+00  0.00000000000E+00  0.99999944175E+02  0.99999999995E+02  0.10566000000E+00 0.  1.
         22   -1    0    0    0    0 -0.00000000000E+00 -0.00000000000E+00 -0.16104776456E+02  0.16104776456E+02  0.00000000000E+00 0.  1.
         13    1    1    2    0    0 -0.12254293152E+01  0.10289003640E+02 -0.65372736327E+01  0.12252035892E+02  0.10566000000E+00 0. -1.
        996    1    1    2    0    0  0.12254293152E+01 -0.10289003640E+02  0.90432441351E+02  0.10385274056E+03  0.50000000000E+02 0.  0.
<mgrwt>
<rscale>  0 0.51062367E+02</rscale>
<asrwt>0</asrwt>
<pdfrwt beam="1">  1       13 0.10000000E+01 0.51062367E+02</pdfrwt>
<pdfrwt beam="2">  1       22 0.16104800E+00 0.51062367E+02</pdfrwt>
<totfact> 0.66649225E-01</totfact>
</mgrwt>
</event>
<event>
 4    1  0.2486873E+000  0.5382606E+02  0.7957747E-01  0.1425734E+00
         13   -1    0    0    0    0  0.00000000000E+00  0.00000000000E+00  0.99999944175E+02  0.99999999995E+02  0.10566000000E+00 0.  1.
         22   -1    0    0    0    0 -0.00000000000E+00 -0.00000000000E+00 -0.19107227521E+02  0.19107227521E+02  0.00000000000E+00 0. -1.
         13    1    1    2    0    0  0.19256597142E+02 -0.51408129736E+01 -0.22543460228E+01  0.20058358146E+02  0.10566000000E+00 0. -1.
        996    1    1    2    0    0 -0.19256597142E+02  0.51408129736E+01  0.83147062677E+02  0.99048869370E+02  0.50000000000E+02 0.  0.
<mgrwt>
<rscale>  0 0.53826058E+02</rscale>
<asrwt>0</asrwt>
<pdfrwt beam="1">  1       13 0.10000000E+01 0.53826058E+02</pdfrwt>
<pdfrwt beam="2">  1       22 0.19107250E+00 0.53826058E+02</pdfrwt>
<totfact> 0.49464789E-01</totfact>
</mgrwt>
</event>
<event>
 4    1  0.2486873E+000  0.5771943E+02  0.7957747E-01  0.1407659E+00
         13   -1    0    0    0    0  0.00000000000E+00  0.00000000000E+00  0.99999944187E+02  0.10000000001E+03  0.10566000000E+00 0. -1.
         22   -1    0    0    0    0 -0.00000000000E+00 -0.00000000000E+00 -0.18751902377E+02  0.18751902377E+02  0.00000000000E+00 0.  1.
         13    1    1    2    0    0  0.99280724451E+01  0.27073349296E+02  0.25162480918E+02  0.38271327056E+02  0.10566000000E+00 0.  1.
        996    1    1    2    0    0 -0.99280724451E+01 -0.27073349296E+02  0.56085560892E+02  0.80480575328E+02  0.50000000000E+02 0.  0.
<mgrwt>
<rscale>  0 0.57719432E+02</rscale>
<asrwt>0</asrwt>
<pdfrwt beam="1">  1       13 0.10000000E+01 0.57719432E+02</pdfrwt>
<pdfrwt beam="2">  1       22 0.18751925E+00 0.57719432E+02</pdfrwt>
<totfact> 0.51536834E-01</totfact>
</mgrwt>
</event>
<event>
 4    1  0.2486873E+000  0.5423909E+02  0.7957747E-01  0.1423732E+00
         13   -1    0    0    0    0  0.00000000000E+00  0.00000000000E+00  0.99999944173E+02  0.99999999993E+02  0.10566000000E+00 0.  1.
         22   -1    0    0    0    0 -0.00000000000E+00 -0.00000000000E+00 -0.27712781166E+02  0.27712781166E+02  0.00000000000E+00 0.  1.
         13    1    1    2    0    0  0.74363047903E+01  0.19661651522E+02 -0.14382407618E+02  0.25470453125E+02  0.10566000000E+00 0. -1.
        996    1    1    2    0    0 -0.74363047903E+01 -0.19661651522E+02  0.86669570625E+02  0.10224232803E+03  0.50000000000E+02 0.  0.
<mgrwt>
<rscale>  0 0.54239093E+02</rscale>
<asrwt>0</asrwt>
<pdfrwt beam="1">  1       13 0.10000000E+01 0.54239093E+02</pdfrwt>
<pdfrwt beam="2">  1       22 0.27712801E+00 0.54239093E+02</pdfrwt>
<totfact> 0.24163572E-01</totfact>
</mgrwt>
</event>
<event>
 4    1  0.2486873E+000  0.5103710E+02  0.7957747E-01  0.1439827E+00
         13   -1    0    0    0    0  0.00000000000E+00  0.00000000000E+00  0.99999944180E+02  0.10000000000E+03  0.10566000000E+00 0. -1.
         22   -1    0    0    0    0 -0.00000000000E+00 -0.00000000000E+00 -0.14655321971E+02  0.14655321971E+02  0.00000000000E+00 0.  1.
         13    1    1    2    0    0 -0.34687571258E+01 -0.96308324418E+01 -0.46129123261E+01  0.11228327288E+02  0.10566000000E+00 0.  1.
        996    1    1    2    0    0  0.34687571258E+01  0.96308324418E+01  0.89957534535E+02  0.10342699468E+03  0.50000000000E+02 0.  0.
<mgrwt>
<rscale>  0 0.51037096E+02</rscale>
<asrwt>0</asrwt>
<pdfrwt beam="1">  1       13 0.10000000E+01 0.51037096E+02</pdfrwt>
<pdfrwt beam="2">  1       22 0.14655346E+00 0.51037096E+02</pdfrwt>
<totfact> 0.78093184E-01</totfact>
</mgrwt>
</event>
<event>
 4    1  0.2486873E+000  0.5454634E+02  0.7957747E-01  0.1422257E+00
         13   -1    0    0    0    0  0.00000000000E+00  0.00000000000E+00  0.99999944183E+02  0.10000000000E+03  0.10566000000E+00 0.  1.
         22   -1    0    0    0    0 -0.00000000000E+00 -0.00000000000E+00 -0.23526685759E+02  0.23526685759E+02  0.00000000000E+00 0. -1.
         13    1    1    2    0    0 -0.20593822096E+02  0.71552187921E+01 -0.77881048545E+01  0.23150991463E+02  0.10566000000E+00 0. -1.
        996    1    1    2    0    0  0.20593822096E+02 -0.71552187921E+01  0.84261363278E+02  0.10037569430E+03  0.50000000000E+02 0.  0.
<mgrwt>
<rscale>  0 0.54546335E+02</rscale>
<asrwt>0</asrwt>
<pdfrwt beam="1">  1       13 0.10000000E+01 0.54546335E+02</pdfrwt>
<pdfrwt beam="2">  1       22 0.23526707E+00 0.54546335E+02</pdfrwt>
<totfact> 0.33343663E-01</totfact>
</mgrwt>
</event>
<event>
 4    1  0.2486873E+000  0.5118922E+02  0.7957747E-01  0.1439031E+00
         13   -1    0    0    0    0  0.00000000000E+00  0.00000000000E+00  0.99999944180E+02  0.10000000000E+03  0.10566000000E+00 0. -1.
         22   -1    0    0    0    0 -0.00000000000E+00 -0.00000000000E+00 -0.10866728018E+02  0.10866728018E+02  0.00000000000E+00 0.  1.
         13    1    1    2    0    0 -0.10775289164E+02  0.20566435674E+01  0.42939960812E+01  0.11780755736E+02  0.10566000000E+00 0.  1.
        996    1    1    2    0    0  0.10775289164E+02 -0.20566435674E+01  0.84839220080E+02  0.99085972282E+02  0.50000000000E+02 0.  0.
<mgrwt>
<rscale>  0 0.51189224E+02</rscale>
<asrwt>0</asrwt>
<pdfrwt beam="1">  1       13 0.10000000E+01 0.51189224E+02</pdfrwt>
<pdfrwt beam="2">  1       22 0.10866753E+00 0.51189224E+02</pdfrwt>
<totfact> 0.12457522E+00</totfact>
</mgrwt>
</event>
<event>
 4    1  0.2486873E+000  0.5108317E+02  0.7957747E-01  0.1439585E+00
         13   -1    0    0    0    0  0.00000000000E+00  0.00000000000E+00  0.99999944175E+02  0.99999999995E+02  0.10566000000E+00 0. -1.
         22   -1    0    0    0    0 -0.00000000000E+00 -0.00000000000E+00 -0.11183606827E+02  0.11183606827E+02  0.00000000000E+00 0. -1.
         13    1    1    2    0    0  0.80314866518E+01 -0.67070955162E+01  0.23033620515E+01  0.10714781793E+02  0.10566000000E+00 0.  1.
        996    1    1    2    0    0 -0.80314866518E+01  0.67070955162E+01  0.86512975296E+02  0.10046882503E+03  0.50000000000E+02 0.  0.
<mgrwt>
<rscale>  0 0.51083167E+02</rscale>
<asrwt>0</asrwt>
<pdfrwt beam="1">  1       13 0.10000000E+01 0.51083167E+02</pdfrwt>
<pdfrwt beam="2">  1       22 0.11183632E+00 0.51083167E+02</pdfrwt>
<totfact> 0.11932901E+00</totfact>
</mgrwt>
</event>
<event>
 4    1  0.2486873E+000  0.5209014E+02  0.7957747E-01  0.1434383E+00
         13   -1    0    0    0    0  0.00000000000E+00  0.00000000000E+00  0.99999944173E+02  0.99999999993E+02  0.10566000000E+00 0. -1.
         22   -1    0    0    0    0 -0.00000000000E+00 -0.00000000000E+00 -0.18919293903E+02  0.18919293903E+02  0.00000000000E+00 0. -1.
         13    1    1    2    0    0 -0.94669648389E+01  0.11124702958E+02 -0.72998103121E+01  0.16330365391E+02  0.10566000000E+00 0.  1.
        996    1    1    2    0    0  0.94669648389E+01 -0.11124702958E+02  0.88380460582E+02  0.10258892851E+03  0.50000000000E+02 0.  0.
<mgrwt>
<rscale>  0 0.52090138E+02</rscale>
<asrwt>0</asrwt>
<pdfrwt beam="1">  1       13 0.10000000E+01 0.52090138E+02</pdfrwt>
<pdfrwt beam="2">  1       22 0.18919317E+00 0.52090138E+02</pdfrwt>
<totfact> 0.50211108E-01</totfact>
</mgrwt>
</event>
<event>
 4    1  0.2486873E+000  0.5137743E+02  0.7957747E-01  0.1438051E+00
         13   -1    0    0    0    0  0.00000000000E+00  0.00000000000E+00  0.99999944188E+02  0.10000000001E+03  0.10566000000E+00 0. -1.
         22   -1    0    0    0    0 -0.00000000000E+00 -0.00000000000E+00 -0.99986621401E+01  0.99986621401E+01  0.00000000000E+00 0. -1.
         13    1    1    2    0    0 -0.29913033000E+00 -0.11813176993E+02  0.18517457361E+02  0.21966975686E+02  0.10566000000E+00 0.  1.
        996    1    1    2    0    0  0.29913033000E+00  0.11813176993E+02  0.71483824686E+02  0.88031686462E+02  0.50000000000E+02 0.  0.
<mgrwt>
<rscale>  0 0.51377433E+02</rscale>
<asrwt>0</asrwt>
<pdfrwt beam="1">  1       13 0.10000000E+01 0.51377433E+02</pdfrwt>
<pdfrwt beam="2">  1       22 0.99986873E-01 0.51377433E+02</pdfrwt>
<totfact> 0.14079403E+00</totfact>
</mgrwt>
</event>
<event>
 4    1  0.2486873E+000  0.5102217E+02  0.7957747E-01  0.1439905E+00
         13   -1    0    0    0    0  0.00000000000E+00  0.00000000000E+00  0.99999944184E+02  0.10000000000E+03  0.10566000000E+00 0. -1.
         22   -1    0    0    0    0 -0.00000000000E+00 -0.00000000000E+00 -0.17236814473E+02  0.17236814473E+02  0.00000000000E+00 0.  1.
         13    1    1    2    0    0 -0.74137995194E+01  0.69496197024E+01 -0.81220768454E+01  0.13009263378E+02  0.10566000000E+00 0.  1.
        996    1    1    2    0    0  0.74137995194E+01 -0.69496197024E+01  0.90885206556E+02  0.10422755110E+03  0.50000000000E+02 0.  0.
<mgrwt>
<rscale>  0 0.51022168E+02</rscale>
<asrwt>0</asrwt>
<pdfrwt beam="1">  1       13 0.10000000E+01 0.51022168E+02</pdfrwt>
<pdfrwt beam="2">  1       22 0.17236838E+00 0.51022168E+02</pdfrwt>
<totfact> 0.59225651E-01</totfact>
</mgrwt>
</event>
<event>
 4    1  0.2486873E+000  0.5117880E+02  0.7957747E-01  0.1439085E+00
         13   -1    0    0    0    0  0.00000000000E+00  0.00000000000E+00  0.99999944182E+02  0.10000000000E+03  0.10566000000E+00 0.  1.
         22   -1    0    0    0    0 -0.00000000000E+00 -0.00000000000E+00 -0.30920938362E+02  0.30920938362E+02  0.00000000000E+00 0. -1.
         13    1    1    2    0    0 -0.10186028963E+01  0.10873435517E+02 -0.23063809382E+02  0.25519005056E+02  0.10566000000E+00 0. -1.
        996    1    1    2    0    0  0.10186028963E+01 -0.10873435517E+02  0.92142815202E+02  0.10540193331E+03  0.50000000000E+02 0.  0.
<mgrwt>
<rscale>  0 0.51178796E+02</rscale>
<asrwt>0</asrwt>
<pdfrwt beam="1">  1       13 0.10000000E+01 0.51178796E+02</pdfrwt>
<pdfrwt beam="2">  1       22 0.30920958E+00 0.51178796E+02</pdfrwt>
<totfact> 0.19556873E-01</totfact>
</mgrwt>
</event>
<event>
 4    1  0.2486873E+000  0.5148656E+02  0.7957747E-01  0.1437484E+00
         13   -1    0    0    0    0  0.00000000000E+00  0.00000000000E+00  0.99999944175E+02  0.99999999996E+02  0.10566000000E+00 0.  1.
         22   -1    0    0    0    0 -0.00000000000E+00 -0.00000000000E+00 -0.11432912242E+02  0.11432912242E+02  0.00000000000E+00 0.  1.
         13    1    1    2    0    0 -0.77538756403E+01 -0.95259495077E+01  0.49653337834E+01  0.13248849199E+02  0.10566000000E+00 0. -1.
        996    1    1    2    0    0  0.77538756403E+01  0.95259495077E+01  0.83601698150E+02  0.98184063040E+02  0.50000000000E+02 0.  0.
<mgrwt>
<rscale>  0 0.51486564E+02</rscale>
<asrwt>0</asrwt>
<pdfrwt beam="1">  1       13 0.10000000E+01 0.51486564E+02</pdfrwt>
<pdfrwt beam="2">  1       22 0.11432937E+00 0.51486564E+02</pdfrwt>
<totfact> 0.11555564E+00</totfact>
</mgrwt>
</event>
<event>
 4    1  0.2486873E+000  0.5389605E+02  0.7957747E-01  0.1425393E+00
         13   -1    0    0    0    0  0.00000000000E+00  0.00000000000E+00  0.99999944183E+02  0.10000000000E+03  0.10566000000E+00 0.  1.
         22   -1    0    0    0    0 -0.00000000000E+00 -0.00000000000E+00 -0.19275271779E+02  0.19275271779E+02  0.00000000000E+00 0. -1.
         13    1    1    2    0    0  0.44384414915E+01  0.19623578333E+02 -0.23424277299E+01  0.20255436830E+02  0.10566000000E+00 0. -1.
        996    1    1    2    0    0 -0.44384414915E+01 -0.19623578333E+02  0.83067100134E+02  0.99019834953E+02  0.50000000000E+02 0.  0.
<mgrwt>
<rscale>  0 0.53896054E+02</rscale>
<asrwt>0</asrwt>
<pdfrwt beam="1">  1       13 0.10000000E+01 0.53896054E+02</pdfrwt>
<pdfrwt beam="2">  1       22 0.19275294E+00 0.53896054E+02</pdfrwt>
<totfact> 0.48680531E-01</totfact>
</mgrwt>
</event>
<event>
 4    1  0.2486873E+000  0.5325487E+02  0.7957747E-01  0.1428537E+00
         13   -1    0    0    0    0  0.00000000000E+00  0.00000000000E+00  0.99999944177E+02  0.99999999997E+02  0.10566000000E+00 0. -1.
         22   -1    0    0    0    0 -0.00000000000E+00 -0.00000000000E+00 -0.12814945417E+02  0.12814945417E+02  0.00000000000E+00 0. -1.
         13    1    1    2    0    0  0.18332477652E+02  0.30361554686E-01  0.21580814969E+02  0.28316486319E+02  0.10566000000E+00 0.  1.
        996    1    1    2    0    0 -0.18332477652E+02 -0.30361554686E-01  0.65604183791E+02  0.84498459096E+02  0.50000000000E+02 0.  0.
<mgrwt>
<rscale>  0 0.53254865E+02</rscale>
<asrwt>0</asrwt>
<pdfrwt beam="1">  1       13 0.10000000E+01 0.53254865E+02</pdfrwt>
<pdfrwt beam="2">  1       22 0.12814970E+00 0.53254865E+02</pdfrwt>
<totfact> 0.97351717E-01</totfact>
</mgrwt>
</event>
<event>
 4    1  0.2486873E+000  0.5210652E+02  0.7957747E-01  0.1434300E+00
         13   -1    0    0    0    0  0.00000000000E+00  0.00000000000E+00  0.99999944182E+02  0.10000000000E+03  0.10566000000E+00 0. -1.
         22   -1    0    0    0    0 -0.00000000000E+00 -0.00000000000E+00 -0.15966490220E+02  0.15966490220E+02  0.00000000000E+00 0. -1.
         13    1    1    2    0    0 -0.98602194950E+01  0.10856611179E+02 -0.25760060239E+01  0.14890832947E+02  0.10566000000E+00 0.  1.
        996    1    1    2    0    0  0.98602194950E+01 -0.10856611179E+02  0.86609459985E+02  0.10107565728E+03  0.50000000000E+02 0.  0.
<mgrwt>
<rscale>  0 0.52106525E+02</rscale>
<asrwt>0</asrwt>
<pdfrwt beam="1">  1       13 0.10000000E+01 0.52106525E+02</pdfrwt>
<pdfrwt beam="2">  1       22 0.15966514E+00 0.52106525E+02</pdfrwt>
<totfact> 0.67781471E-01</totfact>
</mgrwt>
</event>
<event>
 4    1  0.2486873E+000  0.5599299E+02  0.7957747E-01  0.1415460E+00
         13   -1    0    0    0    0  0.00000000000E+00  0.00000000000E+00  0.99999944173E+02  0.99999999993E+02  0.10566000000E+00 0.  1.
         22   -1    0    0    0    0 -0.00000000000E+00 -0.00000000000E+00 -0.35760475397E+02  0.35760475397E+02  0.00000000000E+00 0. -1.
         13    1    1    2    0    0  0.19221606601E+02  0.16301685086E+02 -0.21653795595E+02  0.33228197735E+02  0.10566000000E+00 0. -1.
        996    1    1    2    0    0 -0.19221606601E+02 -0.16301685086E+02  0.85893264371E+02  0.10253227766E+03  0.50000000000E+02 0.  0.
<mgrwt>
<rscale>  0 0.55992991E+02</rscale>
<asrwt>0</asrwt>
<pdfrwt beam="1">  1       13 0.10000000E+01 0.55992991E+02</pdfrwt>
<pdfrwt beam="2">  1       22 0.35760493E+00 0.55992991E+02</pdfrwt>
<totfact> 0.15194229E-01</totfact>
</mgrwt>
</event>
<event>
 4    1  0.2486873E+000  0.5342549E+02  0.7957747E-01  0.1427695E+00
         13   -1    0    0    0    0  0.00000000000E+00  0.00000000000E+00  0.99999944173E+02  0.99999999993E+02  0.10566000000E+00 0.  1.
         22   -1    0    0    0    0 -0.00000000000E+00 -0.00000000000E+00 -0.14583556548E+02  0.14583556548E+02  0.00000000000E+00 0.  1.
         13    1    1    2    0    0  0.10679580685E+02 -0.15499353489E+02  0.78398850044E+01  0.20390153582E+02  0.10566000000E+00 0. -1.
        996    1    1    2    0    0 -0.10679580685E+02  0.15499353489E+02  0.77576502620E+02  0.94193402959E+02  0.50000000000E+02 0.  0.
<mgrwt>
<rscale>  0 0.53425494E+02</rscale>
<asrwt>0</asrwt>
<pdfrwt beam="1">  1       13 0.10000000E+01 0.53425494E+02</pdfrwt>
<pdfrwt beam="2">  1       22 0.14583580E+00 0.53425494E+02</pdfrwt>
<totfact> 0.79115148E-01</totfact>
</mgrwt>
</event>
<event>
 4    1  0.2486873E+000  0.5344125E+02  0.7957747E-01  0.1427617E+00
         13   -1    0    0    0    0  0.00000000000E+00  0.00000000000E+00  0.99999944172E+02  0.99999999992E+02  0.10566000000E+00 0. -1.
         22   -1    0    0    0    0 -0.00000000000E+00 -0.00000000000E+00 -0.14542228966E+02  0.14542228966E+02  0.00000000000E+00 0. -1.
         13    1    1    2    0    0 -0.50159856026E+01  0.18188094796E+02  0.81295324598E+01  0.20544278180E+02  0.10566000000E+00 0.  1.
        996    1    1    2    0    0  0.50159856026E+01 -0.18188094796E+02  0.77328182746E+02  0.93997950779E+02  0.50000000000E+02 0.  0.
<mgrwt>
<rscale>  0 0.53441247E+02</rscale>
<asrwt>0</asrwt>
<pdfrwt beam="1">  1       13 0.10000000E+01 0.53441247E+02</pdfrwt>
<pdfrwt beam="2">  1       22 0.14542253E+00 0.53441247E+02</pdfrwt>
<totfact> 0.79488283E-01</totfact>
</mgrwt>
</event>
<event>
 4    1  0.2486873E+000  0.5187413E+02  0.7957747E-01  0.1435487E+00
         13   -1    0    0    0    0  0.00000000000E+00  0.00000000000E+00  0.99999944174E+02  0.99999999995E+02  0.10566000000E+00 0. -1.
         22   -1    0    0    0    0 -0.00000000000E+00 -0.00000000000E+00 -0.21303074471E+02  0.21303074471E+02  0.00000000000E+00 0. -1.
         13    1    1    2    0    0 -0.85883538164E+01 -0.10824316172E+02 -0.11016442817E+02  0.17671978334E+02  0.10566000000E+00 0.  1.
        996    1    1    2    0    0  0.85883538164E+01  0.10824316172E+02  0.89713312521E+02  0.10363109613E+03  0.50000000000E+02 0.  0.
<mgrwt>
<rscale>  0 0.51874133E+02</rscale>
<asrwt>0</asrwt>
<pdfrwt beam="1">  1       13 0.10000000E+01 0.51874133E+02</pdfrwt>
<pdfrwt beam="2">  1       22 0.21303096E+00 0.51874133E+02</pdfrwt>
<totfact> 0.40215498E-01</totfact>
</mgrwt>
</event>
<event>
 4    1  0.2486873E+000  0.5107032E+02  0.7957747E-01  0.1439653E+00
         13   -1    0    0    0    0  0.00000000000E+00  0.00000000000E+00  0.99999944182E+02  0.10000000000E+03  0.10566000000E+00 0.  1.
         22   -1    0    0    0    0 -0.00000000000E+00 -0.00000000000E+00 -0.13035708853E+02  0.13035708853E+02  0.00000000000E+00 0.  1.
         13    1    1    2    0    0  0.72869528268E+01 -0.74214158809E+01  0.47138871879E+02  0.48272782199E+02  0.10566000000E+00 0. -1.
        996    1    1    2    0    0 -0.72869528268E+01  0.74214158809E+01  0.39825363450E+02  0.64762926656E+02  0.50000000000E+02 0.  0.
<mgrwt>
<rscale>  0 0.51070315E+02</rscale>
<asrwt>0</asrwt>
<pdfrwt beam="1">  1       13 0.10000000E+01 0.51070315E+02</pdfrwt>
<pdfrwt beam="2">  1       22 0.13035733E+00 0.51070315E+02</pdfrwt>
<totfact> 0.94325222E-01</totfact>
</mgrwt>
</event>
<event>
 4    1  0.2486873E+000  0.5293302E+02  0.7957747E-01  0.1430134E+00
         13   -1    0    0    0    0  0.00000000000E+00  0.00000000000E+00  0.99999944182E+02  0.10000000000E+03  0.10566000000E+00 0.  1.
         22   -1    0    0    0    0 -0.00000000000E+00 -0.00000000000E+00 -0.13446381442E+02  0.13446381442E+02  0.00000000000E+00 0. -1.
         13    1    1    2    0    0  0.15678878203E+02  0.74884992894E+01  0.90489493088E+01  0.19590801181E+02  0.10566000000E+00 0. -1.
        996    1    1    2    0    0 -0.15678878203E+02 -0.74884992894E+01  0.77504613431E+02  0.93855580262E+02  0.50000000000E+02 0.  0.
<mgrwt>
<rscale>  0 0.52933022E+02</rscale>
<asrwt>0</asrwt>
<pdfrwt beam="1">  1       13 0.10000000E+01 0.52933022E+02</pdfrwt>
<pdfrwt beam="2">  1       22 0.13446406E+00 0.52933022E+02</pdfrwt>
<totfact> 0.90157430E-01</totfact>
</mgrwt>
</event>
<event>
 4    1  0.2486873E+000  0.5108666E+02  0.7957747E-01  0.1439567E+00
         13   -1    0    0    0    0  0.00000000000E+00  0.00000000000E+00  0.99999944181E+02  0.10000000000E+03  0.10566000000E+00 0. -1.
         22   -1    0    0    0    0 -0.00000000000E+00 -0.00000000000E+00 -0.21392407439E+02  0.21392407439E+02  0.00000000000E+00 0.  1.
         13    1    1    2    0    0  0.25562937638E+01  0.10164268564E+02 -0.12881206713E+02  0.16606734889E+02  0.10566000000E+00 0.  1.
        996    1    1    2    0    0 -0.25562937638E+01 -0.10164268564E+02  0.91488743454E+02  0.10478567255E+03  0.50000000000E+02 0.  0.
<mgrwt>
<rscale>  0 0.51086662E+02</rscale>
<asrwt>0</asrwt>
<pdfrwt beam="1">  1       13 0.10000000E+01 0.51086662E+02</pdfrwt>
<pdfrwt beam="2">  1       22 0.21392429E+00 0.51086662E+02</pdfrwt>
<totfact> 0.39841081E-01</totfact>
</mgrwt>
</event>
<event>
 4    1  0.2486873E+000  0.9245921E+02  0.7957747E-01  0.1297003E+00
         13   -1    0    0    0    0  0.00000000000E+00  0.00000000000E+00  0.99999944185E+02  0.10000000000E+03  0.10566000000E+00 0.  1.
         22   -1    0    0    0    0 -0.00000000000E+00 -0.00000000000E+00 -0.87570439773E+02  0.87570439773E+02  0.00000000000E+00 0. -1.
         13    1    1    2    0    0  0.45535167261E+02  0.63049612410E+02 -0.33081971404E+02  0.84517057915E+02  0.10566000000E+00 0. -1.
        996    1    1    2    0    0 -0.45535167261E+02 -0.63049612410E+02  0.45511475815E+02  0.10305338186E+03  0.50000000000E+02 0.  0.
<mgrwt>
<rscale>  0 0.92459208E+02</rscale>
<asrwt>0</asrwt>
<pdfrwt beam="1">  1       13 0.10000000E+01 0.92459208E+02</pdfrwt>
<pdfrwt beam="2">  1       22 0.87570443E+00 0.92459208E+02</pdfrwt>
<totfact> 0.14214589E-02</totfact>
</mgrwt>
</event>
<event>
 4    1  0.2486873E+000  0.5629018E+02  0.7957747E-01  0.1414094E+00
         13   -1    0    0    0    0  0.00000000000E+00  0.00000000000E+00  0.99999944182E+02  0.10000000000E+03  0.10566000000E+00 0.  1.
         22   -1    0    0    0    0 -0.00000000000E+00 -0.00000000000E+00 -0.17055575938E+02  0.17055575938E+02  0.00000000000E+00 0.  1.
         13    1    1    2    0    0 -0.44604642875E+01  0.25469375011E+02  0.31943212919E+02  0.41097017176E+02  0.10566000000E+00 0. -1.
        996    1    1    2    0    0  0.44604642875E+01 -0.25469375011E+02  0.51001155325E+02  0.75958558765E+02  0.50000000000E+02 0.  0.
<mgrwt>
<rscale>  0 0.56290184E+02</rscale>
<asrwt>0</asrwt>
<pdfrwt beam="1">  1       13 0.10000000E+01 0.56290184E+02</pdfrwt>
<pdfrwt beam="2">  1       22 0.17055599E+00 0.56290184E+02</pdfrwt>
<totfact> 0.60933916E-01</totfact>
</mgrwt>
</event>
<event>
 4    1  0.2486873E+000  0.5371344E+02  0.7957747E-01  0.1426283E+00
         13   -1    0    0    0    0  0.00000000000E+00  0.00000000000E+00  0.99999944173E+02  0.99999999993E+02  0.10566000000E+00 0.  1.
         22   -1    0    0    0    0 -0.00000000000E+00 -0.00000000000E+00 -0.52407697940E+02  0.52407697940E+02  0.00000000000E+00 0. -1.
         13    1    1    2    0    0  0.17933505758E+02  0.79701164306E+01 -0.42899397921E+02  0.47175235990E+02  0.10566000000E+00 0. -1.
        996    1    1    2    0    0 -0.17933505758E+02 -0.79701164306E+01  0.90491644155E+02  0.10523246194E+03  0.50000000000E+02 0.  0.
<mgrwt>
<rscale>  0 0.53713438E+02</rscale>
<asrwt>0</asrwt>
<pdfrwt beam="1">  1       13 0.10000000E+01 0.53713438E+02</pdfrwt>
<pdfrwt beam="2">  1       22 0.52407711E+00 0.53713438E+02</pdfrwt>
<totfact> 0.65016408E-02</totfact>
</mgrwt>
</event>
<event>
 4    1  0.2486873E+000  0.5219419E+02  0.7957747E-01  0.1433854E+00
         13   -1    0    0    0    0  0.00000000000E+00  0.00000000000E+00  0.99999944172E+02  0.99999999993E+02  0.10566000000E+00 0. -1.
         22   -1    0    0    0    0 -0.00000000000E+00 -0.00000000000E+00 -0.30351035252E+02  0.30351035252E+02  0.00000000000E+00 0.  1.
         13    1    1    2    0    0  0.12516075293E+02 -0.82207763881E+01 -0.20974579059E+02  0.25771640148E+02  0.10566000000E+00 0.  1.
        996    1    1    2    0    0 -0.12516075293E+02  0.82207763881E+01  0.90623487980E+02  0.10457939510E+03  0.50000000000E+02 0.  0.
<mgrwt>
<rscale>  0 0.52194188E+02</rscale>
<asrwt>0</asrwt>
<pdfrwt beam="1">  1       13 0.10000000E+01 0.52194188E+02</pdfrwt>
<pdfrwt beam="2">  1       22 0.30351055E+00 0.52194188E+02</pdfrwt>
<totfact> 0.20264668E-01</totfact>
</mgrwt>
</event>
<event>
 4    1  0.2486873E+000  0.5557551E+02  0.7957747E-01  0.1417397E+00
         13   -1    0    0    0    0  0.00000000000E+00  0.00000000000E+00  0.99999944179E+02  0.99999999999E+02  0.10566000000E+00 0. -1.
         22   -1    0    0    0    0 -0.00000000000E+00 -0.00000000000E+00 -0.20695965278E+02  0.20695965278E+02  0.00000000000E+00 0. -1.
         13    1    1    2    0    0  0.17000631870E+02  0.17309414690E+02  0.50132499336E+00  0.24267258018E+02  0.10566000000E+00 0.  1.
        996    1    1    2    0    0 -0.17000631870E+02 -0.17309414690E+02  0.78802653908E+02  0.96428707260E+02  0.50000000000E+02 0.  0.
<mgrwt>
<rscale>  0 0.55575510E+02</rscale>
<asrwt>0</asrwt>
<pdfrwt beam="1">  1       13 0.10000000E+01 0.55575510E+02</pdfrwt>
<pdfrwt beam="2">  1       22 0.20695987E+00 0.55575510E+02</pdfrwt>
<totfact> 0.42750393E-01</totfact>
</mgrwt>
</event>
<event>
 4    1  0.2486873E+000  0.5153392E+02  0.7957747E-01  0.1437239E+00
         13   -1    0    0    0    0  0.00000000000E+00  0.00000000000E+00  0.99999944184E+02  0.10000000000E+03  0.10566000000E+00 0.  1.
         22   -1    0    0    0    0 -0.00000000000E+00 -0.00000000000E+00 -0.10570347617E+02  0.10570347617E+02  0.00000000000E+00 0.  1.
         13    1    1    2    0    0 -0.98446825848E+01 -0.76698614767E+01  0.26037154369E+02  0.28873675241E+02  0.10566000000E+00 0. -1.
        996    1    1    2    0    0  0.98446825848E+01  0.76698614767E+01  0.63392442198E+02  0.81696672381E+02  0.50000000000E+02 0.  0.
<mgrwt>
<rscale>  0 0.51533917E+02</rscale>
<asrwt>0</asrwt>
<pdfrwt beam="1">  1       13 0.10000000E+01 0.51533917E+02</pdfrwt>
<pdfrwt beam="2">  1       22 0.10570373E+00 0.51533917E+02</pdfrwt>
<totfact> 0.12987132E+00</totfact>
</mgrwt>
</event>
<event>
 4    1  0.2486873E+000  0.5595143E+02  0.7957747E-01  0.1415652E+00
         13   -1    0    0    0    0  0.00000000000E+00  0.00000000000E+00  0.99999944177E+02  0.99999999997E+02  0.10566000000E+00 0.  1.
         22   -1    0    0    0    0 -0.00000000000E+00 -0.00000000000E+00 -0.16472259344E+02  0.16472259344E+02  0.00000000000E+00 0. -1.
         13    1    1    2    0    0 -0.29093770085E+01 -0.24941884405E+02  0.23120826982E+02  0.34134233206E+02  0.10566000000E+00 0. -1.
        996    1    1    2    0    0  0.29093770085E+01  0.24941884405E+02  0.60406857851E+02  0.82338026134E+02  0.50000000000E+02 0.  0.
<mgrwt>
<rscale>  0 0.55951426E+02</rscale>
<asrwt>0</asrwt>
<pdfrwt beam="1">  1       13 0.10000000E+01 0.55951426E+02</pdfrwt>
<pdfrwt beam="2">  1       22 0.16472283E+00 0.55951426E+02</pdfrwt>
<totfact> 0.64710671E-01</totfact>
</mgrwt>
</event>
<event>
 4    1  0.2486873E+000  0.5183819E+02  0.7957747E-01  0.1435672E+00
         13   -1    0    0    0    0  0.00000000000E+00  0.00000000000E+00  0.99999944178E+02  0.99999999998E+02  0.10566000000E+00 0. -1.
         22   -1    0    0    0    0 -0.00000000000E+00 -0.00000000000E+00 -0.11206807543E+02  0.11206807543E+02  0.00000000000E+00 0. -1.
         13    1    1    2    0    0  0.71065434785E+01 -0.11691652671E+02  0.10235726432E+02  0.17087391903E+02  0.10566000000E+00 0.  1.
        996    1    1    2    0    0 -0.71065434785E+01  0.11691652671E+02  0.78557410203E+02  0.94119415639E+02  0.50000000000E+02 0.  0.
<mgrwt>
<rscale>  0 0.51838188E+02</rscale>
<asrwt>0</asrwt>
<pdfrwt beam="1">  1       13 0.10000000E+01 0.51838188E+02</pdfrwt>
<pdfrwt beam="2">  1       22 0.11206832E+00 0.51838188E+02</pdfrwt>
<totfact> 0.11916836E+00</totfact>
</mgrwt>
</event>
<event>
 4    1  0.2486873E+000  0.5280915E+02  0.7957747E-01  0.1430753E+00
         13   -1    0    0    0    0  0.00000000000E+00  0.00000000000E+00  0.99999944172E+02  0.99999999992E+02  0.10566000000E+00 0.  1.
         22   -1    0    0    0    0 -0.00000000000E+00 -0.00000000000E+00 -0.14097248141E+02  0.14097248141E+02  0.00000000000E+00 0.  1.
         13    1    1    2    0    0  0.86258567895E+01 -0.14642423000E+02  0.54241345239E+01  0.17839236420E+02  0.10566000000E+00 0. -1.
        996    1    1    2    0    0 -0.86258567895E+01  0.14642423000E+02  0.80478561507E+02  0.96258011713E+02  0.50000000000E+02 0.  0.
<mgrwt>
<rscale>  0 0.52809147E+02</rscale>
<asrwt>0</asrwt>
<pdfrwt beam="1">  1       13 0.10000000E+01 0.52809147E+02</pdfrwt>
<pdfrwt beam="2">  1       22 0.14097272E+00 0.52809147E+02</pdfrwt>
<totfact> 0.83526003E-01</totfact>
</mgrwt>
</event>
<event>
 4    1  0.2486873E+000  0.5133520E+02  0.7957747E-01  0.1438270E+00
         13   -1    0    0    0    0  0.00000000000E+00  0.00000000000E+00  0.99999944177E+02  0.99999999998E+02  0.10566000000E+00 0. -1.
         22   -1    0    0    0    0 -0.00000000000E+00 -0.00000000000E+00 -0.12446643247E+02  0.12446643247E+02  0.00000000000E+00 0.  1.
         13    1    1    2    0    0 -0.10579951091E+02 -0.48339716652E+01  0.82179099255E+00  0.11661438660E+02  0.10566000000E+00 0.  1.
        996    1    1    2    0    0  0.10579951091E+02  0.48339716652E+01  0.86731509937E+02  0.10078520458E+03  0.50000000000E+02 0.  0.
<mgrwt>
<rscale>  0 0.51335199E+02</rscale>
<asrwt>0</asrwt>
<pdfrwt beam="1">  1       13 0.10000000E+01 0.51335199E+02</pdfrwt>
<pdfrwt beam="2">  1       22 0.12446668E+00 0.51335199E+02</pdfrwt>
<totfact> 0.10145627E+00</totfact>
</mgrwt>
</event>
<event>
 4    1  0.2486873E+000  0.5204010E+02  0.7957747E-01  0.1434638E+00
         13   -1    0    0    0    0  0.00000000000E+00  0.00000000000E+00  0.99999944175E+02  0.99999999995E+02  0.10566000000E+00 0.  1.
         22   -1    0    0    0    0 -0.00000000000E+00 -0.00000000000E+00 -0.11330819563E+02  0.11330819563E+02  0.00000000000E+00 0.  1.
         13    1    1    2    0    0 -0.67108677374E+01  0.12772477161E+02  0.12549806563E+02  0.19122780326E+02  0.10566000000E+00 0. -1.
        996    1    1    2    0    0  0.67108677374E+01 -0.12772477161E+02  0.76119318050E+02  0.92208039232E+02  0.50000000000E+02 0.  0.
<mgrwt>
<rscale>  0 0.52040099E+02</rscale>
<asrwt>0</asrwt>
<pdfrwt beam="1">  1       13 0.10000000E+01 0.52040099E+02</pdfrwt>
<pdfrwt beam="2">  1       22 0.11330844E+00 0.52040099E+02</pdfrwt>
<totfact> 0.11727313E+00</totfact>
</mgrwt>
</event>
<event>
 4    1  0.2486873E+000  0.5145403E+02  0.7957747E-01  0.1437653E+00
         13   -1    0    0    0    0  0.00000000000E+00  0.00000000000E+00  0.99999944176E+02  0.99999999996E+02  0.10566000000E+00 0.  1.
         22   -1    0    0    0    0 -0.00000000000E+00 -0.00000000000E+00 -0.12931278655E+02  0.12931278655E+02  0.00000000000E+00 0. -1.
         13    1    1    2    0    0 -0.64629149842E+01 -0.10283403309E+02  0.41596547983E+00  0.12153264789E+02  0.10566000000E+00 0. -1.
        996    1    1    2    0    0  0.64629149842E+01  0.10283403309E+02  0.86652700041E+02  0.10077801386E+03  0.50000000000E+02 0.  0.
<mgrwt>
<rscale>  0 0.51454034E+02</rscale>
<asrwt>0</asrwt>
<pdfrwt beam="1">  1       13 0.10000000E+01 0.51454034E+02</pdfrwt>
<pdfrwt beam="2">  1       22 0.12931303E+00 0.51454034E+02</pdfrwt>
<totfact> 0.95607734E-01</totfact>
</mgrwt>
</event>
<event>
 4    1  0.2486873E+000  0.5157593E+02  0.7957747E-01  0.1437022E+00
         13   -1    0    0    0    0  0.00000000000E+00  0.00000000000E+00  0.99999944178E+02  0.99999999998E+02  0.10566000000E+00 0.  1.
         22   -1    0    0    0    0 -0.00000000000E+00 -0.00000000000E+00 -0.36733812252E+02  0.36733812252E+02  0.00000000000E+00 0. -1.
         13    1    1    2    0    0 -0.92708861495E+01 -0.86097250836E+01 -0.28659364661E+02  0.31328055203E+02  0.10566000000E+00 0. -1.
        996    1    1    2    0    0  0.92708861495E+01  0.86097250836E+01  0.91925496586E+02  0.10540575705E+03  0.50000000000E+02 0.  0.
<mgrwt>
<rscale>  0 0.51575931E+02</rscale>
<asrwt>0</asrwt>
<pdfrwt beam="1">  1       13 0.10000000E+01 0.51575931E+02</pdfrwt>
<pdfrwt beam="2">  1       22 0.36733830E+00 0.51575931E+02</pdfrwt>
<totfact> 0.14433663E-01</totfact>
</mgrwt>
</event>
<event>
 4    1  0.2486873E+000  0.5248615E+02  0.7957747E-01  0.1432375E+00
         13   -1    0    0    0    0  0.00000000000E+00  0.00000000000E+00  0.99999944179E+02  0.99999999999E+02  0.10566000000E+00 0.  1.
         22   -1    0    0    0    0 -0.00000000000E+00 -0.00000000000E+00 -0.13098417902E+02  0.13098417902E+02  0.00000000000E+00 0. -1.
         13    1    1    2    0    0 -0.13225672471E+02  0.89374458822E+01  0.68403785854E+01  0.17366585572E+02  0.10566000000E+00 0. -1.
        996    1    1    2    0    0  0.13225672471E+02 -0.89374458822E+01  0.80061147692E+02  0.95731832328E+02  0.50000000000E+02 0.  0.
<mgrwt>
<rscale>  0 0.52486154E+02</rscale>
<asrwt>0</asrwt>
<pdfrwt beam="1">  1       13 0.10000000E+01 0.52486154E+02</pdfrwt>
<pdfrwt beam="2">  1       22 0.13098442E+00 0.52486154E+02</pdfrwt>
<totfact> 0.93901690E-01</totfact>
</mgrwt>
</event>
<event>
 4    1  0.2486873E+000  0.5241476E+02  0.7957747E-01  0.1432736E+00
         13   -1    0    0    0    0  0.00000000000E+00  0.00000000000E+00  0.99999944180E+02  0.10000000000E+03  0.10566000000E+00 0.  1.
         22   -1    0    0    0    0 -0.00000000000E+00 -0.00000000000E+00 -0.15544746603E+02  0.15544746603E+02  0.00000000000E+00 0. -1.
         13    1    1    2    0    0 -0.20144987163E+01 -0.15596425863E+02 -0.48543847184E+00  0.15733833587E+02  0.10566000000E+00 0. -1.
        996    1    1    2    0    0  0.20144987163E+01  0.15596425863E+02  0.84940636049E+02  0.99810913017E+02  0.50000000000E+02 0.  0.
<mgrwt>
<rscale>  0 0.52414757E+02</rscale>
<asrwt>0</asrwt>
<pdfrwt beam="1">  1       13 0.10000000E+01 0.52414757E+02</pdfrwt>
<pdfrwt beam="2">  1       22 0.15544770E+00 0.52414757E+02</pdfrwt>
<totfact> 0.70979150E-01</totfact>
</mgrwt>
</event>
<event>
 4    1  0.2486873E+000  0.5643961E+02  0.7957747E-01  0.1413411E+00
         13   -1    0    0    0    0  0.00000000000E+00  0.00000000000E+00  0.99999944172E+02  0.99999999992E+02  0.10566000000E+00 0. -1.
         22   -1    0    0    0    0 -0.00000000000E+00 -0.00000000000E+00 -0.17097770530E+02  0.17097770530E+02  0.00000000000E+00 0. -1.
         13    1    1    2    0    0 -0.65240054958E+01  0.25354828742E+02  0.28671209866E+02  0.38826272387E+02  0.10566000000E+00 0.  1.
        996    1    1    2    0    0  0.65240054958E+01 -0.25354828742E+02  0.54230963776E+02  0.78271498135E+02  0.50000000000E+02 0.  0.
<mgrwt>
<rscale>  0 0.56439614E+02</rscale>
<asrwt>0</asrwt>
<pdfrwt beam="1">  1       13 0.10000000E+01 0.56439614E+02</pdfrwt>
<pdfrwt beam="2">  1       22 0.17097794E+00 0.56439614E+02</pdfrwt>
<totfact> 0.60685719E-01</totfact>
</mgrwt>
</event>
<event>
 4    1  0.2486873E+000  0.5325571E+02  0.7957747E-01  0.1428532E+00
         13   -1    0    0    0    0  0.00000000000E+00  0.00000000000E+00  0.99999944178E+02  0.99999999999E+02  0.10566000000E+00 0. -1.
         22   -1    0    0    0    0 -0.00000000000E+00 -0.00000000000E+00 -0.14774569681E+02  0.14774569681E+02  0.00000000000E+00 0.  1.
         13    1    1    2    0    0  0.62796924806E+01  0.17226044074E+02  0.59588547086E+01  0.19279269840E+02  0.10566000000E+00 0.  1.
        996    1    1    2    0    0 -0.62796924806E+01 -0.17226044074E+02  0.79266519789E+02  0.95495299840E+02  0.50000000000E+02 0.  0.
<mgrwt>
<rscale>  0 0.53255715E+02</rscale>
<asrwt>0</asrwt>
<pdfrwt beam="1">  1       13 0.10000000E+01 0.53255715E+02</pdfrwt>
<pdfrwt beam="2">  1       22 0.14774593E+00 0.53255715E+02</pdfrwt>
<totfact> 0.77406231E-01</totfact>
</mgrwt>
</event>
<event>
 4    1  0.2486873E+000  0.5487508E+02  0.7957747E-01  0.1420691E+00
         13   -1    0    0    0    0  0.00000000000E+00  0.00000000000E+00  0.99999944181E+02  0.10000000000E+03  0.10566000000E+00 0.  1.
         22   -1    0    0    0    0 -0.00000000000E+00 -0.00000000000E+00 -0.27633619807E+02  0.27633619807E+02  0.00000000000E+00 0. -1.
         13    1    1    2    0    0 -0.10821111898E+02  0.19853901958E+02 -0.13051414122E+02  0.26107938645E+02  0.10566000000E+00 0. -1.
        996    1    1    2    0    0  0.10821111898E+02 -0.19853901958E+02  0.85417738497E+02  0.10152568116E+03  0.50000000000E+02 0.  0.
<mgrwt>
<rscale>  0 0.54875075E+02</rscale>
<asrwt>0</asrwt>
<pdfrwt beam="1">  1       13 0.10000000E+01 0.54875075E+02</pdfrwt>
<pdfrwt beam="2">  1       22 0.27633640E+00 0.54875075E+02</pdfrwt>
<totfact> 0.24319649E-01</totfact>
</mgrwt>
</event>
<event>
 4    1  0.2486873E+000  0.8655896E+02  0.7957747E-01  0.1311405E+00
         13   -1    0    0    0    0  0.00000000000E+00  0.00000000000E+00  0.99999944167E+02  0.99999999988E+02  0.10566000000E+00 0. -1.
         22   -1    0    0    0    0 -0.00000000000E+00 -0.00000000000E+00 -0.69235716659E+02  0.69235716659E+02  0.00000000000E+00 0.  1.
         13    1    1    2    0    0 -0.60854867778E+02  0.35904568896E+02  0.41611264580E+02  0.81999765267E+02  0.10566000000E+00 0.  1.
        996    1    1    2    0    0  0.60854867778E+02 -0.35904568896E+02 -0.10847037072E+02  0.87235951380E+02  0.50000000000E+02 0.  0.
<mgrwt>
<rscale>  0 0.86558957E+02</rscale>
<asrwt>0</asrwt>
<pdfrwt beam="1">  1       13 0.10000000E+01 0.86558957E+02</pdfrwt>
<pdfrwt beam="2">  1       22 0.69235725E+00 0.86558957E+02</pdfrwt>
<totfact> 0.78354349E-02</totfact>
</mgrwt>
</event>
<event>
 4    1  0.2486873E+000  0.7139149E+02  0.7957747E-01  0.1355424E+00
         13   -1    0    0    0    0  0.00000000000E+00  0.00000000000E+00  0.99999944185E+02  0.10000000000E+03  0.10566000000E+00 0.  1.
         22   -1    0    0    0    0 -0.00000000000E+00 -0.00000000000E+00 -0.40938399226E+02  0.40938399226E+02  0.00000000000E+00 0. -1.
         13    1    1    2    0    0 -0.78374923637E+01 -0.50351945566E+02  0.46393237648E+01  0.51169123482E+02  0.10566000000E+00 0. -1.
        996    1    1    2    0    0  0.78374923637E+01  0.50351945566E+02  0.54422221194E+02  0.89769275749E+02  0.50000000000E+02 0.  0.
<mgrwt>
<rscale>  0 0.71391489E+02</rscale>
<asrwt>0</asrwt>
<pdfrwt beam="1">  1       13 0.10000000E+01 0.71391489E+02</pdfrwt>
<pdfrwt beam="2">  1       22 0.40938416E+00 0.71391489E+02</pdfrwt>
<totfact> 0.11972376E-01</totfact>
</mgrwt>
</event>
<event>
 4    1  0.2486873E+000  0.5118960E+02  0.7957747E-01  0.1439029E+00
         13   -1    0    0    0    0  0.00000000000E+00  0.00000000000E+00  0.99999944183E+02  0.10000000000E+03  0.10566000000E+00 0.  1.
         22   -1    0    0    0    0 -0.00000000000E+00 -0.00000000000E+00 -0.16774890903E+02  0.16774890903E+02  0.00000000000E+00 0.  1.
         13    1    1    2    0    0 -0.51160974442E+01  0.97056808031E+01 -0.70178481972E+01  0.13024440497E+02  0.10566000000E+00 0. -1.
        996    1    1    2    0    0  0.51160974442E+01 -0.97056808031E+01  0.90242901477E+02  0.10375045041E+03  0.50000000000E+02 0.  0.
<mgrwt>
<rscale>  0 0.51189596E+02</rscale>
<asrwt>0</asrwt>
<pdfrwt beam="1">  1       13 0.10000000E+01 0.51189596E+02</pdfrwt>
<pdfrwt beam="2">  1       22 0.16774914E+00 0.51189596E+02</pdfrwt>
<totfact> 0.62132319E-01</totfact>
</mgrwt>
</event>
<event>
 4    1  0.2486873E+000  0.5103246E+02  0.7957747E-01  0.1439851E+00
         13   -1    0    0    0    0  0.00000000000E+00  0.00000000000E+00  0.99999944176E+02  0.99999999996E+02  0.10566000000E+00 0. -1.
         22   -1    0    0    0    0 -0.00000000000E+00 -0.00000000000E+00 -0.13504057385E+02  0.13504057385E+02  0.00000000000E+00 0. -1.
         13    1    1    2    0    0 -0.76858686789E+00 -0.10184344220E+02 -0.28560600959E+01  0.10605651148E+02  0.10566000000E+00 0.  1.
        996    1    1    2    0    0  0.76858686789E+00  0.10184344220E+02  0.89351946886E+02  0.10289840623E+03  0.50000000000E+02 0.  0.
<mgrwt>
<rscale>  0 0.51032456E+02</rscale>
<asrwt>0</asrwt>
<pdfrwt beam="1">  1       13 0.10000000E+01 0.51032456E+02</pdfrwt>
<pdfrwt beam="2">  1       22 0.13504082E+00 0.51032456E+02</pdfrwt>
<totfact> 0.89180759E-01</totfact>
</mgrwt>
</event>
<event>
 4    1  0.2486873E+000  0.5419434E+02  0.7957747E-01  0.1423948E+00
         13   -1    0    0    0    0  0.00000000000E+00  0.00000000000E+00  0.99999944177E+02  0.99999999997E+02  0.10566000000E+00 0.  1.
         22   -1    0    0    0    0 -0.00000000000E+00 -0.00000000000E+00 -0.15057847740E+02  0.15057847740E+02  0.00000000000E+00 0. -1.
         13    1    1    2    0    0 -0.20800034833E+02  0.20941358436E+01  0.11735378418E+02  0.23974092781E+02  0.10566000000E+00 0. -1.
        996    1    1    2    0    0  0.20800034833E+02 -0.20941358436E+01  0.73206718018E+02  0.91083754956E+02  0.50000000000E+02 0.  0.
<mgrwt>
<rscale>  0 0.54194343E+02</rscale>
<asrwt>0</asrwt>
<pdfrwt beam="1">  1       13 0.10000000E+01 0.54194343E+02</pdfrwt>
<pdfrwt beam="2">  1       22 0.15057871E+00 0.54194343E+02</pdfrwt>
<totfact> 0.75139292E-01</totfact>
</mgrwt>
</event>
<event>
 4    1  0.2486873E+000  0.5513910E+02  0.7957747E-01  0.1419442E+00
         13   -1    0    0    0    0  0.00000000000E+00  0.00000000000E+00  0.99999944183E+02  0.10000000000E+03  0.10566000000E+00 0. -1.
         22   -1    0    0    0    0 -0.00000000000E+00 -0.00000000000E+00 -0.17508978471E+02  0.17508978471E+02  0.00000000000E+00 0.  1.
         13    1    1    2    0    0 -0.19760730594E+02  0.12240677593E+02  0.74929252585E+01  0.24422853120E+02  0.10566000000E+00 0.  1.
        996    1    1    2    0    0  0.19760730594E+02 -0.12240677593E+02  0.74998040453E+02  0.93086125354E+02  0.50000000000E+02 0.  0.
<mgrwt>
<rscale>  0 0.55139103E+02</rscale>
<asrwt>0</asrwt>
<pdfrwt beam="1">  1       13 0.10000000E+01 0.55139103E+02</pdfrwt>
<pdfrwt beam="2">  1       22 0.17509002E+00 0.55139103E+02</pdfrwt>
<totfact> 0.58054325E-01</totfact>
</mgrwt>
</event>
<event>
 4    1  0.2486873E+000  0.5156133E+02  0.7957747E-01  0.1437098E+00
         13   -1    0    0    0    0  0.00000000000E+00  0.00000000000E+00  0.99999944180E+02  0.10000000000E+03  0.10566000000E+00 0. -1.
         22   -1    0    0    0    0 -0.00000000000E+00 -0.00000000000E+00 -0.26994826352E+02  0.26994826352E+02  0.00000000000E+00 0. -1.
         13    1    1    2    0    0 -0.12472431030E+02  0.17346141806E+01 -0.18254331908E+02  0.22176614250E+02  0.10566000000E+00 0.  1.
        996    1    1    2    0    0  0.12472431030E+02 -0.17346141806E+01  0.91259449736E+02  0.10481821210E+03  0.50000000000E+02 0.  0.
<mgrwt>
<rscale>  0 0.51561327E+02</rscale>
<asrwt>0</asrwt>
<pdfrwt beam="1">  1       13 0.10000000E+01 0.51561327E+02</pdfrwt>
<pdfrwt beam="2">  1       22 0.26994847E+00 0.51561327E+02</pdfrwt>
<totfact> 0.25335475E-01</totfact>
</mgrwt>
</event>
<event>
 4    1  0.2486873E+000  0.5145376E+02  0.7957747E-01  0.1437654E+00
         13   -1    0    0    0    0  0.00000000000E+00  0.00000000000E+00  0.99999944175E+02  0.99999999995E+02  0.10566000000E+00 0. -1.
         22   -1    0    0    0    0 -0.00000000000E+00 -0.00000000000E+00 -0.10120119194E+02  0.10120119194E+02  0.00000000000E+00 0. -1.
         13    1    1    2    0    0 -0.16331898675E+01  0.12034209675E+02  0.15957953457E+02  0.20053851356E+02  0.10566000000E+00 0.  1.
        996    1    1    2    0    0  0.16331898675E+01 -0.12034209675E+02  0.73921871525E+02  0.90066267833E+02  0.50000000000E+02 0.  0.
<mgrwt>
<rscale>  0 0.51453761E+02</rscale>
<asrwt>0</asrwt>
<pdfrwt beam="1">  1       13 0.10000000E+01 0.51453761E+02</pdfrwt>
<pdfrwt beam="2">  1       22 0.10120144E+00 0.51453761E+02</pdfrwt>
<totfact> 0.13837533E+00</totfact>
</mgrwt>
</event>
<event>
 4    1  0.2486873E+000  0.5424418E+02  0.7957747E-01  0.1423707E+00
         13   -1    0    0    0    0  0.00000000000E+00  0.00000000000E+00  0.99999944177E+02  0.99999999997E+02  0.10566000000E+00 0.  1.
         22   -1    0    0    0    0 -0.00000000000E+00 -0.00000000000E+00 -0.24461715775E+02  0.24461715775E+02  0.00000000000E+00 0. -1.
         13    1    1    2    0    0 -0.21032802651E+02  0.22887419389E+00 -0.99084357038E+01  0.23251224331E+02  0.10566000000E+00 0. -1.
        996    1    1    2    0    0  0.21032802651E+02 -0.22887419389E+00  0.85446664106E+02  0.10121049144E+03  0.50000000000E+02 0.  0.
<mgrwt>
<rscale>  0 0.54244181E+02</rscale>
<asrwt>0</asrwt>
<pdfrwt beam="1">  1       13 0.10000000E+01 0.54244181E+02</pdfrwt>
<pdfrwt beam="2">  1       22 0.24461737E+00 0.54244181E+02</pdfrwt>
<totfact> 0.30875769E-01</totfact>
</mgrwt>
</event>
<event>
 4    1  0.2486873E+000  0.5231395E+02  0.7957747E-01  0.1433246E+00
         13   -1    0    0    0    0  0.00000000000E+00  0.00000000000E+00  0.99999944178E+02  0.99999999998E+02  0.10566000000E+00 0. -1.
         22   -1    0    0    0    0 -0.00000000000E+00 -0.00000000000E+00 -0.22377884333E+02  0.22377884333E+02  0.00000000000E+00 0.  1.
         13    1    1    2    0    0  0.12678757622E+02 -0.87176910825E+01 -0.11381162454E+02  0.19138731815E+02  0.10566000000E+00 0.  1.
        996    1    1    2    0    0 -0.12678757622E+02  0.87176910825E+01  0.89003222299E+02  0.10323915252E+03  0.50000000000E+02 0.  0.
<mgrwt>
<rscale>  0 0.52313947E+02</rscale>
<asrwt>0</asrwt>
<pdfrwt beam="1">  1       13 0.10000000E+01 0.52313947E+02</pdfrwt>
<pdfrwt beam="2">  1       22 0.22377906E+00 0.52313947E+02</pdfrwt>
<totfact> 0.36619362E-01</totfact>
</mgrwt>
</event>
<event>
 4    1  0.2486873E+000  0.5146547E+02  0.7957747E-01  0.1437594E+00
         13   -1    0    0    0    0  0.00000000000E+00  0.00000000000E+00  0.99999944182E+02  0.10000000000E+03  0.10566000000E+00 0. -1.
         22   -1    0    0    0    0 -0.00000000000E+00 -0.00000000000E+00 -0.19509641334E+02  0.19509641334E+02  0.00000000000E+00 0.  1.
         13    1    1    2    0    0 -0.13865628240E+01  0.12114953445E+02 -0.97580192447E+01  0.15618090698E+02  0.10566000000E+00 0.  1.
        996    1    1    2    0    0  0.13865628240E+01 -0.12114953445E+02  0.90248322093E+02  0.10389155064E+03  0.50000000000E+02 0.  0.
<mgrwt>
<rscale>  0 0.51465470E+02</rscale>
<asrwt>0</asrwt>
<pdfrwt beam="1">  1       13 0.10000000E+01 0.51465470E+02</pdfrwt>
<pdfrwt beam="2">  1       22 0.19509664E+00 0.51465470E+02</pdfrwt>
<totfact> 0.47399200E-01</totfact>
</mgrwt>
</event>
<event>
 4    1  0.2486873E+000  0.5639065E+02  0.7957747E-01  0.1413635E+00
         13   -1    0    0    0    0  0.00000000000E+00  0.00000000000E+00  0.99999944188E+02  0.10000000001E+03  0.10566000000E+00 0.  1.
         22   -1    0    0    0    0 -0.00000000000E+00 -0.00000000000E+00 -0.18420806635E+02  0.18420806635E+02  0.00000000000E+00 0.  1.
         13    1    1    2    0    0 -0.19927854126E+02 -0.16816237560E+02  0.11573897370E+02  0.28528432836E+02  0.10566000000E+00 0. -1.
        996    1    1    2    0    0  0.19927854126E+02  0.16816237560E+02  0.70005240183E+02  0.89892373808E+02  0.50000000000E+02 0.  0.
<mgrwt>
<rscale>  0 0.56390648E+02</rscale>
<asrwt>0</asrwt>
<pdfrwt beam="1">  1       13 0.10000000E+01 0.56390648E+02</pdfrwt>
<pdfrwt beam="2">  1       22 0.18420829E+00 0.56390648E+02</pdfrwt>
<totfact> 0.53115963E-01</totfact>
</mgrwt>
</event>
<event>
 4    1  0.2486873E+000  0.5706812E+02  0.7957747E-01  0.1410564E+00
         13   -1    0    0    0    0  0.00000000000E+00  0.00000000000E+00  0.99999944181E+02  0.10000000000E+03  0.10566000000E+00 0. -1.
         22   -1    0    0    0    0 -0.00000000000E+00 -0.00000000000E+00 -0.74715788269E+02  0.74715788269E+02  0.00000000000E+00 0.  1.
         13    1    1    2    0    0 -0.27432243960E+02 -0.20598120280E+01 -0.63482722667E+02  0.69186979090E+02  0.10566000000E+00 0.  1.
        996    1    1    2    0    0  0.27432243960E+02  0.20598120280E+01  0.88766878580E+02  0.10552880918E+03  0.50000000000E+02 0.  0.
<mgrwt>
<rscale>  0 0.57068125E+02</rscale>
<asrwt>0</asrwt>
<pdfrwt beam="1">  1       13 0.10000000E+01 0.57068125E+02</pdfrwt>
<pdfrwt beam="2">  1       22 0.74715795E+00 0.57068125E+02</pdfrwt>
<totfact> 0.50322148E-02</totfact>
</mgrwt>
</event>
<event>
 4    1  0.2486873E+000  0.5238490E+02  0.7957747E-01  0.1432887E+00
         13   -1    0    0    0    0  0.00000000000E+00  0.00000000000E+00  0.99999944179E+02  0.99999999999E+02  0.10566000000E+00 0.  1.
         22   -1    0    0    0    0 -0.00000000000E+00 -0.00000000000E+00 -0.19798415037E+02  0.19798415037E+02  0.00000000000E+00 0. -1.
         13    1    1    2    0    0  0.13184246888E+02  0.83876833567E+01 -0.77388413513E+01  0.17437844694E+02  0.10566000000E+00 0. -1.
        996    1    1    2    0    0 -0.13184246888E+02 -0.83876833567E+01  0.87940370493E+02  0.10236057034E+03  0.50000000000E+02 0.  0.
<mgrwt>
<rscale>  0 0.52384899E+02</rscale>
<asrwt>0</asrwt>
<pdfrwt beam="1">  1       13 0.10000000E+01 0.52384899E+02</pdfrwt>
<pdfrwt beam="2">  1       22 0.19798437E+00 0.52384899E+02</pdfrwt>
<totfact> 0.46202622E-01</totfact>
</mgrwt>
</event>
<event>
 4    1  0.2486873E+000  0.5187668E+02  0.7957747E-01  0.1435474E+00
         13   -1    0    0    0    0  0.00000000000E+00  0.00000000000E+00  0.99999944184E+02  0.10000000000E+03  0.10566000000E+00 0. -1.
         22   -1    0    0    0    0 -0.00000000000E+00 -0.00000000000E+00 -0.12656392607E+02  0.12656392607E+02  0.00000000000E+00 0. -1.
         13    1    1    2    0    0 -0.22747416384E+01 -0.13638748863E+02  0.38404535932E+01  0.14350964007E+02  0.10566000000E+00 0.  1.
        996    1    1    2    0    0  0.22747416384E+01  0.13638748863E+02  0.83503097984E+02  0.98305428604E+02  0.50000000000E+02 0.  0.
<mgrwt>
<rscale>  0 0.51876680E+02</rscale>
<asrwt>0</asrwt>
<pdfrwt beam="1">  1       13 0.10000000E+01 0.51876680E+02</pdfrwt>
<pdfrwt beam="2">  1       22 0.12656417E+00 0.51876680E+02</pdfrwt>
<totfact> 0.98971476E-01</totfact>
</mgrwt>
</event>
<event>
 4    1  0.2486873E+000  0.5329798E+02  0.7957747E-01  0.1428324E+00
         13   -1    0    0    0    0  0.00000000000E+00  0.00000000000E+00  0.99999944182E+02  0.10000000000E+03  0.10566000000E+00 0. -1.
         22   -1    0    0    0    0 -0.00000000000E+00 -0.00000000000E+00 -0.38058822794E+02  0.38058822794E+02  0.00000000000E+00 0.  1.
         13    1    1    2    0    0 -0.14799580410E+02 -0.11029381318E+02 -0.27985523619E+02  0.33524252845E+02  0.10566000000E+00 0.  1.
        996    1    1    2    0    0  0.14799580410E+02  0.11029381318E+02  0.89926645007E+02  0.10453456995E+03  0.50000000000E+02 0.  0.
<mgrwt>
<rscale>  0 0.53297982E+02</rscale>
<asrwt>0</asrwt>
<pdfrwt beam="1">  1       13 0.10000000E+01 0.53297982E+02</pdfrwt>
<pdfrwt beam="2">  1       22 0.38058840E+00 0.53297982E+02</pdfrwt>
<totfact> 0.13572024E-01</totfact>
</mgrwt>
</event>
<event>
 4    1  0.2486873E+000  0.6398737E+02  0.7957747E-01  0.1381822E+00
         13   -1    0    0    0    0  0.00000000000E+00  0.00000000000E+00  0.99999944186E+02  0.10000000001E+03  0.10566000000E+00 0.  1.
         22   -1    0    0    0    0 -0.00000000000E+00 -0.00000000000E+00 -0.35824175813E+02  0.35824175813E+02  0.00000000000E+00 0. -1.
         13    1    1    2    0    0  0.38862022460E+02 -0.91720433089E+01 -0.65333766777E+01  0.40460837151E+02  0.10566000000E+00 0. -1.
        996    1    1    2    0    0 -0.38862022460E+02  0.91720433089E+01  0.70709145050E+02  0.95363338668E+02  0.50000000000E+02 0.  0.
<mgrwt>
<rscale>  0 0.63987367E+02</rscale>
<asrwt>0</asrwt>
<pdfrwt beam="1">  1       13 0.10000000E+01 0.63987367E+02</pdfrwt>
<pdfrwt beam="2">  1       22 0.35824194E+00 0.63987367E+02</pdfrwt>
<totfact> 0.15250915E-01</totfact>
</mgrwt>
</event>
<event>
 4    1  0.2486873E+000  0.5145669E+02  0.7957747E-01  0.1437639E+00
         13   -1    0    0    0    0  0.00000000000E+00  0.00000000000E+00  0.99999944175E+02  0.99999999995E+02  0.10566000000E+00 0. -1.
         22   -1    0    0    0    0 -0.00000000000E+00 -0.00000000000E+00 -0.10194654931E+02  0.10194654931E+02  0.00000000000E+00 0. -1.
         13    1    1    2    0    0  0.10657403321E+02 -0.58489962454E+01  0.13580722543E+02  0.18227402214E+02  0.10566000000E+00 0.  1.
        996    1    1    2    0    0 -0.10657403321E+02  0.58489962454E+01  0.76224566701E+02  0.91967252712E+02  0.50000000000E+02 0.  0.
<mgrwt>
<rscale>  0 0.51456691E+02</rscale>
<asrwt>0</asrwt>
<pdfrwt beam="1">  1       13 0.10000000E+01 0.51456691E+02</pdfrwt>
<pdfrwt beam="2">  1       22 0.10194680E+00 0.51456691E+02</pdfrwt>
<totfact> 0.13690747E+00</totfact>
</mgrwt>
</event>
<event>
 4    1  0.2486873E+000  0.5112813E+02  0.7957747E-01  0.1439350E+00
         13   -1    0    0    0    0  0.00000000000E+00  0.00000000000E+00  0.99999944176E+02  0.99999999996E+02  0.10566000000E+00 0.  1.
         22   -1    0    0    0    0 -0.00000000000E+00 -0.00000000000E+00 -0.14951222835E+02  0.14951222835E+02  0.00000000000E+00 0. -1.
         13    1    1    2    0    0 -0.10568915931E+02  0.15438983055E+01 -0.46928083380E+01  0.11667014188E+02  0.10566000000E+00 0. -1.
        996    1    1    2    0    0  0.10568915931E+02 -0.15438983055E+01  0.89741529679E+02  0.10328420864E+03  0.50000000000E+02 0.  0.
<mgrwt>
<rscale>  0 0.51128129E+02</rscale>
<asrwt>0</asrwt>
<pdfrwt beam="1">  1       13 0.10000000E+01 0.51128129E+02</pdfrwt>
<pdfrwt beam="2">  1       22 0.14951247E+00 0.51128129E+02</pdfrwt>
<totfact> 0.75565492E-01</totfact>
</mgrwt>
</event>
<event>
 4    1  0.2486873E+000  0.5171312E+02  0.7957747E-01  0.1436315E+00
         13   -1    0    0    0    0  0.00000000000E+00  0.00000000000E+00  0.99999944178E+02  0.99999999999E+02  0.10566000000E+00 0. -1.
         22   -1    0    0    0    0 -0.00000000000E+00 -0.00000000000E+00 -0.10674405613E+02  0.10674405613E+02  0.00000000000E+00 0. -1.
         13    1    1    2    0    0 -0.79489715249E+01 -0.10538543486E+02  0.13394078248E+02  0.18805838010E+02  0.10566000000E+00 0.  1.
        996    1    1    2    0    0  0.79489715249E+01  0.10538543486E+02  0.75931460318E+02  0.91868567602E+02  0.50000000000E+02 0.  0.
<mgrwt>
<rscale>  0 0.51713123E+02</rscale>
<asrwt>0</asrwt>
<pdfrwt beam="1">  1       13 0.10000000E+01 0.51713123E+02</pdfrwt>
<pdfrwt beam="2">  1       22 0.10674431E+00 0.51713123E+02</pdfrwt>
<totfact> 0.12806540E+00</totfact>
</mgrwt>
</event>
<event>
 4    1  0.2486873E+000  0.5114652E+02  0.7957747E-01  0.1439254E+00
         13   -1    0    0    0    0  0.00000000000E+00  0.00000000000E+00  0.99999944186E+02  0.10000000001E+03  0.10566000000E+00 0. -1.
         22   -1    0    0    0    0 -0.00000000000E+00 -0.00000000000E+00 -0.10295478942E+02  0.10295478942E+02  0.00000000000E+00 0. -1.
         13    1    1    2    0    0 -0.10687752472E+02 -0.13183155125E+01  0.63554323983E+01  0.12504746847E+02  0.10566000000E+00 0.  1.
        996    1    1    2    0    0  0.10687752472E+02  0.13183155125E+01  0.83349032845E+02  0.97790732101E+02  0.50000000000E+02 0.  0.
<mgrwt>
<rscale>  0 0.51146515E+02</rscale>
<asrwt>0</asrwt>
<pdfrwt beam="1">  1       13 0.10000000E+01 0.51146515E+02</pdfrwt>
<pdfrwt beam="2">  1       22 0.10295504E+00 0.51146515E+02</pdfrwt>
<totfact> 0.13485694E+00</totfact>
</mgrwt>
</event>
<event>
 4    1  0.2486873E+000  0.5696525E+02  0.7957747E-01  0.1411027E+00
         13   -1    0    0    0    0  0.00000000000E+00  0.00000000000E+00  0.99999944185E+02  0.10000000000E+03  0.10566000000E+00 0. -1.
         22   -1    0    0    0    0 -0.00000000000E+00 -0.00000000000E+00 -0.18946894341E+02  0.18946894341E+02  0.00000000000E+00 0.  1.
         13    1    1    2    0    0 -0.13318677227E+02  0.23825449899E+02  0.13103374064E+02  0.30277859928E+02  0.10566000000E+00 0.  1.
        996    1    1    2    0    0  0.13318677227E+02 -0.23825449899E+02  0.67949675780E+02  0.88669034418E+02  0.50000000000E+02 0.  0.
<mgrwt>
<rscale>  0 0.56965246E+02</rscale>
<asrwt>0</asrwt>
<pdfrwt beam="1">  1       13 0.10000000E+01 0.56965246E+02</pdfrwt>
<pdfrwt beam="2">  1       22 0.18946917E+00 0.56965246E+02</pdfrwt>
<totfact> 0.50507188E-01</totfact>
</mgrwt>
</event>
<event>
 4    1  0.2486873E+000  0.5238471E+02  0.7957747E-01  0.1432888E+00
         13   -1    0    0    0    0  0.00000000000E+00  0.00000000000E+00  0.99999944185E+02  0.10000000000E+03  0.10566000000E+00 0. -1.
         22   -1    0    0    0    0 -0.00000000000E+00 -0.00000000000E+00 -0.11717975273E+02  0.11717975273E+02  0.00000000000E+00 0. -1.
         13    1    1    2    0    0  0.98434237396E+01  0.12135280930E+02  0.15188599590E+02  0.21791345890E+02  0.10566000000E+00 0.  1.
        996    1    1    2    0    0 -0.98434237396E+01 -0.12135280930E+02  0.73093369322E+02  0.89926629388E+02  0.50000000000E+02 0.  0.
<mgrwt>
<rscale>  0 0.52384712E+02</rscale>
<asrwt>0</asrwt>
<pdfrwt beam="1">  1       13 0.10000000E+01 0.52384712E+02</pdfrwt>
<pdfrwt beam="2">  1       22 0.11718000E+00 0.52384712E+02</pdfrwt>
<totfact> 0.11156017E+00</totfact>
</mgrwt>
</event>
<event>
 4    1  0.2486873E+000  0.5123636E+02  0.7957747E-01  0.1438785E+00
         13   -1    0    0    0    0  0.00000000000E+00  0.00000000000E+00  0.99999944185E+02  0.10000000001E+03  0.10566000000E+00 0.  1.
         22   -1    0    0    0    0 -0.00000000000E+00 -0.00000000000E+00 -0.31793666039E+02  0.31793666039E+02  0.00000000000E+00 0. -1.
         13    1    1    2    0    0 -0.25965223247E+01  0.10882217847E+02 -0.23903696874E+02  0.26392470171E+02  0.10566000000E+00 0. -1.
        996    1    1    2    0    0  0.25965223247E+01 -0.10882217847E+02  0.92109975020E+02  0.10540119587E+03  0.50000000000E+02 0.  0.
<mgrwt>
<rscale>  0 0.51236360E+02</rscale>
<asrwt>0</asrwt>
<pdfrwt beam="1">  1       13 0.10000000E+01 0.51236360E+02</pdfrwt>
<pdfrwt beam="2">  1       22 0.31793685E+00 0.51236360E+02</pdfrwt>
<totfact> 0.18595716E-01</totfact>
</mgrwt>
</event>
<event>
 4    1  0.2486873E+000  0.6526530E+02  0.7957747E-01  0.1376976E+00
         13   -1    0    0    0    0  0.00000000000E+00  0.00000000000E+00  0.99999944181E+02  0.10000000000E+03  0.10566000000E+00 0. -1.
         22   -1    0    0    0    0 -0.00000000000E+00 -0.00000000000E+00 -0.41813145878E+02  0.41813145878E+02  0.00000000000E+00 0.  1.
         13    1    1    2    0    0  0.40924707561E+02  0.92047944037E+01 -0.14258899839E+02  0.44304484170E+02  0.10566000000E+00 0.  1.
        996    1    1    2    0    0 -0.40924707561E+02 -0.92047944037E+01  0.72445698143E+02  0.97508661709E+02  0.50000000000E+02 0.  0.
<mgrwt>
<rscale>  0 0.65265304E+02</rscale>
<asrwt>0</asrwt>
<pdfrwt beam="1">  1       13 0.10000000E+01 0.65265304E+02</pdfrwt>
<pdfrwt beam="2">  1       22 0.41813162E+00 0.65265304E+02</pdfrwt>
<totfact> 0.11433236E-01</totfact>
</mgrwt>
</event>
<event>
 4    1  0.2486873E+000  0.5133054E+02  0.7957747E-01  0.1438294E+00
         13   -1    0    0    0    0  0.00000000000E+00  0.00000000000E+00  0.99999944179E+02  0.99999999999E+02  0.10566000000E+00 0. -1.
         22   -1    0    0    0    0 -0.00000000000E+00 -0.00000000000E+00 -0.15884463780E+02  0.15884463780E+02  0.00000000000E+00 0.  1.
         13    1    1    2    0    0 -0.57697295983E+01  0.10076414046E+02 -0.53144935832E+01  0.12770235148E+02  0.10566000000E+00 0.  1.
        996    1    1    2    0    0  0.57697295983E+01 -0.10076414046E+02  0.89429973982E+02  0.10311422863E+03  0.50000000000E+02 0.  0.
<mgrwt>
<rscale>  0 0.51330536E+02</rscale>
<asrwt>0</asrwt>
<pdfrwt beam="1">  1       13 0.10000000E+01 0.51330536E+02</pdfrwt>
<pdfrwt beam="2">  1       22 0.15884487E+00 0.51330536E+02</pdfrwt>
<totfact> 0.68273457E-01</totfact>
</mgrwt>
</event>
<event>
 4    1  0.2486873E+000  0.5211062E+02  0.7957747E-01  0.1434279E+00
         13   -1    0    0    0    0  0.00000000000E+00  0.00000000000E+00  0.99999944178E+02  0.99999999998E+02  0.10566000000E+00 0. -1.
         22   -1    0    0    0    0 -0.00000000000E+00 -0.00000000000E+00 -0.63872543242E+02  0.63872543242E+02  0.00000000000E+00 0.  1.
         13    1    1    2    0    0 -0.74447195850E+01 -0.12652792202E+02 -0.56074027937E+02  0.57963995491E+02  0.10566000000E+00 0.  1.
        996    1    1    2    0    0  0.74447195850E+01  0.12652792202E+02  0.92201428872E+02  0.10590854775E+03  0.50000000000E+02 0.  0.
<mgrwt>
<rscale>  0 0.52110623E+02</rscale>
<asrwt>0</asrwt>
<pdfrwt beam="1">  1       13 0.10000000E+01 0.52110623E+02</pdfrwt>
<pdfrwt beam="2">  1       22 0.63872553E+00 0.52110623E+02</pdfrwt>
<totfact> 0.82853118E-02</totfact>
</mgrwt>
</event>
<event>
 4    1  0.2486873E+000  0.5510411E+02  0.7957747E-01  0.1419607E+00
         13   -1    0    0    0    0  0.00000000000E+00  0.00000000000E+00  0.99999944183E+02  0.10000000000E+03  0.10566000000E+00 0. -1.
         22   -1    0    0    0    0 -0.00000000000E+00 -0.00000000000E+00 -0.15496191458E+02  0.15496191458E+02  0.00000000000E+00 0. -1.
         13    1    1    2    0    0  0.11544998679E+02 -0.20079235914E+02  0.30935480601E+02  0.38645540926E+02  0.10566000000E+00 0.  1.
        996    1    1    2    0    0 -0.11544998679E+02  0.20079235914E+02  0.53568272124E+02  0.76850650535E+02  0.50000000000E+02 0.  0.
<mgrwt>
<rscale>  0 0.55104108E+02</rscale>
<asrwt>0</asrwt>
<pdfrwt beam="1">  1       13 0.10000000E+01 0.55104108E+02</pdfrwt>
<pdfrwt beam="2">  1       22 0.15496215E+00 0.55104108E+02</pdfrwt>
<totfact> 0.71729318E-01</totfact>
</mgrwt>
</event>
<event>
 4    1  0.2486873E+000  0.5442462E+02  0.7957747E-01  0.1422840E+00
         13   -1    0    0    0    0  0.00000000000E+00  0.00000000000E+00  0.99999944180E+02  0.10000000000E+03  0.10566000000E+00 0. -1.
         22   -1    0    0    0    0 -0.00000000000E+00 -0.00000000000E+00 -0.28158806725E+02  0.28158806725E+02  0.00000000000E+00 0.  1.
         13    1    1    2    0    0  0.63791200213E+00 -0.21485619253E+02 -0.14618828911E+02  0.25995385921E+02  0.10566000000E+00 0.  1.
        996    1    1    2    0    0 -0.63791200213E+00  0.21485619253E+02  0.86459966367E+02  0.10216342080E+03  0.50000000000E+02 0.  0.
<mgrwt>
<rscale>  0 0.54424615E+02</rscale>
<asrwt>0</asrwt>
<pdfrwt beam="1">  1       13 0.10000000E+01 0.54424615E+02</pdfrwt>
<pdfrwt beam="2">  1       22 0.28158827E+00 0.54424615E+02</pdfrwt>
<totfact> 0.23432424E-01</totfact>
</mgrwt>
</event>
<event>
 4    1  0.2486873E+000  0.5158628E+02  0.7957747E-01  0.1436969E+00
         13   -1    0    0    0    0  0.00000000000E+00  0.00000000000E+00  0.99999944178E+02  0.99999999998E+02  0.10566000000E+00 0. -1.
         22   -1    0    0    0    0 -0.00000000000E+00 -0.00000000000E+00 -0.21453356518E+02  0.21453356518E+02  0.00000000000E+00 0.  1.
         13    1    1    2    0    0 -0.42745680444E+01  0.11952908973E+02 -0.11854623400E+02  0.17369145773E+02  0.10566000000E+00 0.  1.
        996    1    1    2    0    0  0.42745680444E+01 -0.11952908973E+02  0.90401211060E+02  0.10408421074E+03  0.50000000000E+02 0.  0.
<mgrwt>
<rscale>  0 0.51586277E+02</rscale>
<asrwt>0</asrwt>
<pdfrwt beam="1">  1       13 0.10000000E+01 0.51586277E+02</pdfrwt>
<pdfrwt beam="2">  1       22 0.21453378E+00 0.51586277E+02</pdfrwt>
<totfact> 0.39660229E-01</totfact>
</mgrwt>
</event>
<event>
 4    1  0.2486873E+000  0.5177140E+02  0.7957747E-01  0.1436015E+00
         13   -1    0    0    0    0  0.00000000000E+00  0.00000000000E+00  0.99999944179E+02  0.10000000000E+03  0.10566000000E+00 0. -1.
         22   -1    0    0    0    0 -0.00000000000E+00 -0.00000000000E+00 -0.10787239668E+02  0.10787239668E+02  0.00000000000E+00 0. -1.
         13    1    1    2    0    0  0.13368673421E+02 -0.12476370678E+01  0.24241906455E+02  0.27712077149E+02  0.10566000000E+00 0.  1.
        996    1    1    2    0    0 -0.13368673421E+02  0.12476370678E+01  0.64970798057E+02  0.83075162518E+02  0.50000000000E+02 0.  0.
<mgrwt>
<rscale>  0 0.51771402E+02</rscale>
<asrwt>0</asrwt>
<pdfrwt beam="1">  1       13 0.10000000E+01 0.51771402E+02</pdfrwt>
<pdfrwt beam="2">  1       22 0.10787265E+00 0.51771402E+02</pdfrwt>
<totfact> 0.12610907E+00</totfact>
</mgrwt>
</event>
<event>
 4    1  0.2486873E+000  0.5126632E+02  0.7957747E-01  0.1438629E+00
         13   -1    0    0    0    0  0.00000000000E+00  0.00000000000E+00  0.99999944175E+02  0.99999999996E+02  0.10566000000E+00 0. -1.
         22   -1    0    0    0    0 -0.00000000000E+00 -0.00000000000E+00 -0.12343996986E+02  0.12343996986E+02  0.00000000000E+00 0. -1.
         13    1    1    2    0    0 -0.10597082416E+02 -0.39922076590E+01  0.63230015105E+00  0.11342259265E+02  0.10566000000E+00 0.  1.
        996    1    1    2    0    0  0.10597082416E+02  0.39922076590E+01  0.87023647039E+02  0.10100173772E+03  0.50000000000E+02 0.  0.
<mgrwt>
<rscale>  0 0.51266323E+02</rscale>
<asrwt>0</asrwt>
<pdfrwt beam="1">  1       13 0.10000000E+01 0.51266323E+02</pdfrwt>
<pdfrwt beam="2">  1       22 0.12344021E+00 0.51266323E+02</pdfrwt>
<totfact> 0.10274973E+00</totfact>
</mgrwt>
</event>
<event>
 4    1  0.2486873E+000  0.5347889E+02  0.7957747E-01  0.1427432E+00
         13   -1    0    0    0    0  0.00000000000E+00  0.00000000000E+00  0.99999944187E+02  0.10000000001E+03  0.10566000000E+00 0. -1.
         22   -1    0    0    0    0 -0.00000000000E+00 -0.00000000000E+00 -0.40349734939E+02  0.40349734939E+02  0.00000000000E+00 0.  1.
         13    1    1    2    0    0 -0.31773874820E+01 -0.18705494996E+02 -0.30271961302E+02  0.35726658665E+02  0.10566000000E+00 0.  1.
        996    1    1    2    0    0  0.31773874820E+01  0.18705494996E+02  0.89922170550E+02  0.10462307628E+03  0.50000000000E+02 0.  0.
<mgrwt>
<rscale>  0 0.53478887E+02</rscale>
<asrwt>0</asrwt>
<pdfrwt beam="1">  1       13 0.10000000E+01 0.53478887E+02</pdfrwt>
<pdfrwt beam="2">  1       22 0.40349752E+00 0.53478887E+02</pdfrwt>
<totfact> 0.12177498E-01</totfact>
</mgrwt>
</event>
<event>
 4    1  0.2486873E+000  0.9778423E+02  0.7957747E-01  0.1285026E+00
         13   -1    0    0    0    0  0.00000000000E+00  0.00000000000E+00  0.99999944174E+02  0.99999999994E+02  0.10566000000E+00 0.  1.
         22   -1    0    0    0    0 -0.00000000000E+00 -0.00000000000E+00 -0.82647876948E+02  0.82647876948E+02  0.00000000000E+00 0. -1.
         13    1    1    2    0    0  0.76761950582E+02 -0.34195873466E+02  0.74779309676E+01  0.84366376210E+02  0.10566000000E+00 0. -1.
        996    1    1    2    0    0 -0.76761950582E+02  0.34195873466E+02  0.98741362582E+01  0.98281500732E+02  0.50000000000E+02 0.  0.
<mgrwt>
<rscale>  0 0.97784226E+02</rscale>
<asrwt>0</asrwt>
<pdfrwt beam="1">  1       13 0.10000000E+01 0.97784226E+02</pdfrwt>
<pdfrwt beam="2">  1       22 0.82647882E+00 0.97784226E+02</pdfrwt>
<totfact> 0.24032714E-02</totfact>
</mgrwt>
</event>
<event>
 4    1  0.2486873E+000  0.5868456E+02  0.7957747E-01  0.1403436E+00
         13   -1    0    0    0    0  0.00000000000E+00  0.00000000000E+00  0.99999944179E+02  0.99999999999E+02  0.10566000000E+00 0. -1.
         22   -1    0    0    0    0 -0.00000000000E+00 -0.00000000000E+00 -0.26448619772E+02  0.26448619772E+02  0.00000000000E+00 0. -1.
         13    1    1    2    0    0  0.26048239171E+02 -0.16290096747E+02  0.58165263414E+02  0.65780597808E+02  0.10566000000E+00 0.  1.
        996    1    1    2    0    0 -0.26048239171E+02  0.16290096747E+02  0.15386060994E+02  0.60668021963E+02  0.50000000000E+02 0.  0.
<mgrwt>
<rscale>  0 0.58684564E+02</rscale>
<asrwt>0</asrwt>
<pdfrwt beam="1">  1       13 0.10000000E+01 0.58684564E+02</pdfrwt>
<pdfrwt beam="2">  1       22 0.26448640E+00 0.58684564E+02</pdfrwt>
<totfact> 0.26636993E-01</totfact>
</mgrwt>
</event>
<event>
 4    1  0.2486873E+000  0.5281440E+02  0.7957747E-01  0.1430727E+00
         13   -1    0    0    0    0  0.00000000000E+00  0.00000000000E+00  0.99999944181E+02  0.10000000000E+03  0.10566000000E+00 0. -1.
         22   -1    0    0    0    0 -0.00000000000E+00 -0.00000000000E+00 -0.20334416485E+02  0.20334416485E+02  0.00000000000E+00 0.  1.
         13    1    1    2    0    0 -0.16988393283E+02  0.86921921464E+00 -0.73613413333E+01  0.18535413635E+02  0.10566000000E+00 0.  1.
        996    1    1    2    0    0  0.16988393283E+02 -0.86921921464E+00  0.87026869029E+02  0.10179900285E+03  0.50000000000E+02 0.  0.
<mgrwt>
<rscale>  0 0.52814402E+02</rscale>
<asrwt>0</asrwt>
<pdfrwt beam="1">  1       13 0.10000000E+01 0.52814402E+02</pdfrwt>
<pdfrwt beam="2">  1       22 0.20334439E+00 0.52814402E+02</pdfrwt>
<totfact> 0.43987091E-01</totfact>
</mgrwt>
</event>
<event>
 4    1  0.2486873E+000  0.5712659E+02  0.7957747E-01  0.1410302E+00
         13   -1    0    0    0    0  0.00000000000E+00  0.00000000000E+00  0.99999944186E+02  0.10000000001E+03  0.10566000000E+00 0. -1.
         22   -1    0    0    0    0 -0.00000000000E+00 -0.00000000000E+00 -0.28000293309E+02  0.28000293309E+02  0.00000000000E+00 0.  1.
         13    1    1    2    0    0 -0.24040593858E+02  0.13619714384E+02 -0.88422623134E+01  0.29011093392E+02  0.10566000000E+00 0.  1.
        996    1    1    2    0    0  0.24040593858E+02 -0.13619714384E+02  0.80841913191E+02  0.98989199922E+02  0.50000000000E+02 0.  0.
<mgrwt>
<rscale>  0 0.57126586E+02</rscale>
<asrwt>0</asrwt>
<pdfrwt beam="1">  1       13 0.10000000E+01 0.57126586E+02</pdfrwt>
<pdfrwt beam="2">  1       22 0.28000313E+00 0.57126586E+02</pdfrwt>
<totfact> 0.23774803E-01</totfact>
</mgrwt>
</event>
<event>
 4    1  0.2486873E+000  0.5596682E+02  0.7957747E-01  0.1415581E+00
         13   -1    0    0    0    0  0.00000000000E+00  0.00000000000E+00  0.99999944182E+02  0.10000000000E+03  0.10566000000E+00 0.  1.
         22   -1    0    0    0    0 -0.00000000000E+00 -0.00000000000E+00 -0.24729355340E+02  0.24729355340E+02  0.00000000000E+00 0. -1.
         13    1    1    2    0    0 -0.23076957622E+02  0.99869618997E+01 -0.61894371109E+01  0.25896055238E+02  0.10566000000E+00 0. -1.
        996    1    1    2    0    0  0.23076957622E+02 -0.99869618997E+01  0.81460025953E+02  0.98833300104E+02  0.50000000000E+02 0.  0.
<mgrwt>
<rscale>  0 0.55966824E+02</rscale>
<asrwt>0</asrwt>
<pdfrwt beam="1">  1       13 0.10000000E+01 0.55966824E+02</pdfrwt>
<pdfrwt beam="2">  1       22 0.24729376E+00 0.55966824E+02</pdfrwt>
<totfact> 0.30299420E-01</totfact>
</mgrwt>
</event>
<event>
 4    1  0.2486873E+000  0.5205899E+02  0.7957747E-01  0.1434542E+00
         13   -1    0    0    0    0  0.00000000000E+00  0.00000000000E+00  0.99999944172E+02  0.99999999992E+02  0.10566000000E+00 0.  1.
         22   -1    0    0    0    0 -0.00000000000E+00 -0.00000000000E+00 -0.11249296127E+02  0.11249296127E+02  0.00000000000E+00 0.  1.
         13    1    1    2    0    0  0.12072180521E+02  0.80250415796E+01  0.13969285649E+02  0.20131838973E+02  0.10566000000E+00 0. -1.
        996    1    1    2    0    0 -0.12072180521E+02 -0.80250415796E+01  0.74781362396E+02  0.91117457145E+02  0.50000000000E+02 0.  0.
<mgrwt>
<rscale>  0 0.52058994E+02</rscale>
<asrwt>0</asrwt>
<pdfrwt beam="1">  1       13 0.10000000E+01 0.52058994E+02</pdfrwt>
<pdfrwt beam="2">  1       22 0.11249321E+00 0.52058994E+02</pdfrwt>
<totfact> 0.11855521E+00</totfact>
</mgrwt>
</event>
<event>
 4    1  0.2486873E+000  0.5536855E+02  0.7957747E-01  0.1418364E+00
         13   -1    0    0    0    0  0.00000000000E+00  0.00000000000E+00  0.99999944185E+02  0.10000000000E+03  0.10566000000E+00 0.  1.
         22   -1    0    0    0    0 -0.00000000000E+00 -0.00000000000E+00 -0.16983843324E+02  0.16983843324E+02  0.00000000000E+00 0. -1.
         13    1    1    2    0    0  0.19234054047E+02  0.13990276985E+02  0.11165865528E+02  0.26274786435E+02  0.10566000000E+00 0. -1.
        996    1    1    2    0    0 -0.19234054047E+02 -0.13990276985E+02  0.71850235333E+02  0.90709056894E+02  0.50000000000E+02 0.  0.
<mgrwt>
<rscale>  0 0.55368553E+02</rscale>
<asrwt>0</asrwt>
<pdfrwt beam="1">  1       13 0.10000000E+01 0.55368553E+02</pdfrwt>
<pdfrwt beam="2">  1       22 0.16983867E+00 0.55368553E+02</pdfrwt>
<totfact> 0.61285302E-01</totfact>
</mgrwt>
</event>
<event>
 4    1  0.2486873E+000  0.5428863E+02  0.7957747E-01  0.1423493E+00
         13   -1    0    0    0    0  0.00000000000E+00  0.00000000000E+00  0.99999944180E+02  0.10000000000E+03  0.10566000000E+00 0. -1.
         22   -1    0    0    0    0 -0.00000000000E+00 -0.00000000000E+00 -0.14584848496E+02  0.14584848496E+02  0.00000000000E+00 0. -1.
         13    1    1    2    0    0 -0.12588522248E+02 -0.16993653443E+02  0.32492466722E+02  0.38768888395E+02  0.10566000000E+00 0.  1.
        996    1    1    2    0    0  0.12588522248E+02  0.16993653443E+02  0.52922628963E+02  0.75815960101E+02  0.50000000000E+02 0.  0.
<mgrwt>
<rscale>  0 0.54288628E+02</rscale>
<asrwt>0</asrwt>
<pdfrwt beam="1">  1       13 0.10000000E+01 0.54288628E+02</pdfrwt>
<pdfrwt beam="2">  1       22 0.14584872E+00 0.54288628E+02</pdfrwt>
<totfact> 0.79239560E-01</totfact>
</mgrwt>
</event>
<event>
 4    1  0.2486873E+000  0.5375412E+02  0.7957747E-01  0.1426084E+00
         13   -1    0    0    0    0  0.00000000000E+00  0.00000000000E+00  0.99999944182E+02  0.10000000000E+03  0.10566000000E+00 0.  1.
         22   -1    0    0    0    0 -0.00000000000E+00 -0.00000000000E+00 -0.16690002983E+02  0.16690002983E+02  0.00000000000E+00 0. -1.
         13    1    1    2    0    0  0.88550024246E+01 -0.17637870350E+02  0.28719119672E+01  0.19944036222E+02  0.10566000000E+00 0. -1.
        996    1    1    2    0    0 -0.88550024246E+01  0.17637870350E+02  0.80438029232E+02  0.96745966764E+02  0.50000000000E+02 0.  0.
<mgrwt>
<rscale>  0 0.53754121E+02</rscale>
<asrwt>0</asrwt>
<pdfrwt beam="1">  1       13 0.10000000E+01 0.53754121E+02</pdfrwt>
<pdfrwt beam="2">  1       22 0.16690026E+00 0.53754121E+02</pdfrwt>
<totfact> 0.62995069E-01</totfact>
</mgrwt>
</event>
<event>
 4    1  0.2486873E+000  0.5228595E+02  0.7957747E-01  0.1433388E+00
         13   -1    0    0    0    0  0.00000000000E+00  0.00000000000E+00  0.99999944175E+02  0.99999999995E+02  0.10566000000E+00 0. -1.
         22   -1    0    0    0    0 -0.00000000000E+00 -0.00000000000E+00 -0.27382419601E+02  0.27382419601E+02  0.00000000000E+00 0.  1.
         13    1    1    2    0    0 -0.55988261786E+01  0.14229308652E+02 -0.17472489367E+02  0.23218938994E+02  0.10566000000E+00 0.  1.
        996    1    1    2    0    0  0.55988261786E+01 -0.14229308652E+02  0.90090013940E+02  0.10416348060E+03  0.50000000000E+02 0.  0.
<mgrwt>
<rscale>  0 0.52285945E+02</rscale>
<asrwt>0</asrwt>
<pdfrwt beam="1">  1       13 0.10000000E+01 0.52285945E+02</pdfrwt>
<pdfrwt beam="2">  1       22 0.27382440E+00 0.52285945E+02</pdfrwt>
<totfact> 0.24666399E-01</totfact>
</mgrwt>
</event>
<event>
 4    1  0.2486873E+000  0.5397640E+02  0.7957747E-01  0.1425002E+00
         13   -1    0    0    0    0  0.00000000000E+00  0.00000000000E+00  0.99999944179E+02  0.99999999999E+02  0.10566000000E+00 0. -1.
         22   -1    0    0    0    0 -0.00000000000E+00 -0.00000000000E+00 -0.28971106954E+02  0.28971106954E+02  0.00000000000E+00 0.  1.
         13    1    1    2    0    0  0.22655115911E+01 -0.20206908530E+02 -0.16467173341E+02  0.26165447770E+02  0.10566000000E+00 0.  1.
        996    1    1    2    0    0 -0.22655115911E+01  0.20206908530E+02  0.87496010566E+02  0.10280565918E+03  0.50000000000E+02 0.  0.
<mgrwt>
<rscale>  0 0.53976399E+02</rscale>
<asrwt>0</asrwt>
<pdfrwt beam="1">  1       13 0.10000000E+01 0.53976399E+02</pdfrwt>
<pdfrwt beam="2">  1       22 0.28971127E+00 0.53976399E+02</pdfrwt>
<totfact> 0.22172698E-01</totfact>
</mgrwt>
</event>
<event>
 4    1  0.2486873E+000  0.5101238E+02  0.7957747E-01  0.1439956E+00
         13   -1    0    0    0    0  0.00000000000E+00  0.00000000000E+00  0.99999944178E+02  0.99999999998E+02  0.10566000000E+00 0. -1.
         22   -1    0    0    0    0 -0.00000000000E+00 -0.00000000000E+00 -0.98933629591E+01  0.98933629591E+01  0.00000000000E+00 0. -1.
         13    1    1    2    0    0 -0.83122824344E+01 -0.57592363602E+01  0.67249530857E+01  0.12144916663E+02  0.10566000000E+00 0.  1.
        996    1    1    2    0    0  0.83122824344E+01  0.57592363602E+01  0.83381628133E+02  0.97748446294E+02  0.50000000000E+02 0.  0.
<mgrwt>
<rscale>  0 0.51012379E+02</rscale>
<asrwt>0</asrwt>
<pdfrwt beam="1">  1       13 0.10000000E+01 0.51012379E+02</pdfrwt>
<pdfrwt beam="2">  1       22 0.98933881E-01 0.51012379E+02</pdfrwt>
<totfact> 0.14283870E+00</totfact>
</mgrwt>
</event>
<event>
 4    1  0.2486873E+000  0.5301026E+02  0.7957747E-01  0.1429750E+00
         13   -1    0    0    0    0  0.00000000000E+00  0.00000000000E+00  0.99999944180E+02  0.10000000000E+03  0.10566000000E+00 0. -1.
         22   -1    0    0    0    0 -0.00000000000E+00 -0.00000000000E+00 -0.13758984190E+02  0.13758984190E+02  0.00000000000E+00 0. -1.
         13    1    1    2    0    0  0.13283607297E+02  0.11559978780E+02  0.82211746703E+01  0.19434150591E+02  0.10566000000E+00 0.  1.
        996    1    1    2    0    0 -0.13283607297E+02 -0.11559978780E+02  0.78019785320E+02  0.94324833599E+02  0.50000000000E+02 0.  0.
<mgrwt>
<rscale>  0 0.53010257E+02</rscale>
<asrwt>0</asrwt>
<pdfrwt beam="1">  1       13 0.10000000E+01 0.53010257E+02</pdfrwt>
<pdfrwt beam="2">  1       22 0.13759008E+00 0.53010257E+02</pdfrwt>
<totfact> 0.86910156E-01</totfact>
</mgrwt>
</event>
<event>
 4    1  0.2486873E+000  0.5515518E+02  0.7957747E-01  0.1419366E+00
         13   -1    0    0    0    0  0.00000000000E+00  0.00000000000E+00  0.99999944180E+02  0.10000000000E+03  0.10566000000E+00 0.  1.
         22   -1    0    0    0    0 -0.00000000000E+00 -0.00000000000E+00 -0.15458404125E+02  0.15458404125E+02  0.00000000000E+00 0.  1.
         13    1    1    2    0    0  0.20701607134E+02 -0.10655400959E+02  0.21455764945E+02  0.31661571675E+02  0.10566000000E+00 0. -1.
        996    1    1    2    0    0 -0.20701607134E+02  0.10655400959E+02  0.63085775109E+02  0.83796832450E+02  0.50000000000E+02 0.  0.
<mgrwt>
<rscale>  0 0.55155182E+02</rscale>
<asrwt>0</asrwt>
<pdfrwt beam="1">  1       13 0.10000000E+01 0.55155182E+02</pdfrwt>
<pdfrwt beam="2">  1       22 0.15458428E+00 0.55155182E+02</pdfrwt>
<totfact> 0.72032623E-01</totfact>
</mgrwt>
</event>
<event>
 4    1  0.2486873E+000  0.5853246E+02  0.7957747E-01  0.1404096E+00
         13   -1    0    0    0    0  0.00000000000E+00  0.00000000000E+00  0.99999944185E+02  0.10000000001E+03  0.10566000000E+00 0.  1.
         22   -1    0    0    0    0 -0.00000000000E+00 -0.00000000000E+00 -0.22348344674E+02  0.22348344674E+02  0.00000000000E+00 0. -1.
         13    1    1    2    0    0  0.53346828630E+01 -0.29959811940E+02  0.81910580412E+01  0.31514342268E+02  0.10566000000E+00 0. -1.
        996    1    1    2    0    0 -0.53346828630E+01  0.29959811940E+02  0.69460541470E+02  0.90834002411E+02  0.50000000000E+02 0.  0.
<mgrwt>
<rscale>  0 0.58532463E+02</rscale>
<asrwt>0</asrwt>
<pdfrwt beam="1">  1       13 0.10000000E+01 0.58532463E+02</pdfrwt>
<pdfrwt beam="2">  1       22 0.22348366E+00 0.58532463E+02</pdfrwt>
<totfact> 0.37075337E-01</totfact>
</mgrwt>
</event>
<event>
 4    1  0.2486873E+000  0.6384402E+02  0.7957747E-01  0.1382373E+00
         13   -1    0    0    0    0  0.00000000000E+00  0.00000000000E+00  0.99999944177E+02  0.99999999997E+02  0.10566000000E+00 0. -1.
         22   -1    0    0    0    0 -0.00000000000E+00 -0.00000000000E+00 -0.37360890514E+02  0.37360890514E+02  0.00000000000E+00 0.  1.
         13    1    1    2    0    0 -0.20448012588E+02 -0.34028489900E+02 -0.97102752800E+01  0.40870037359E+02  0.10566000000E+00 0.  1.
        996    1    1    2    0    0  0.20448012588E+02  0.34028489900E+02  0.72349328943E+02  0.96490853153E+02  0.50000000000E+02 0.  0.
<mgrwt>
<rscale>  0 0.63844024E+02</rscale>
<asrwt>0</asrwt>
<pdfrwt beam="1">  1       13 0.10000000E+01 0.63844024E+02</pdfrwt>
<pdfrwt beam="2">  1       22 0.37360908E+00 0.63844024E+02</pdfrwt>
<totfact> 0.14149953E-01</totfact>
</mgrwt>
</event>
<event>
 4    1  0.2486873E+000  0.5137390E+02  0.7957747E-01  0.1438069E+00
         13   -1    0    0    0    0  0.00000000000E+00  0.00000000000E+00  0.99999944184E+02  0.10000000000E+03  0.10566000000E+00 0. -1.
         22   -1    0    0    0    0 -0.00000000000E+00 -0.00000000000E+00 -0.15035570341E+02  0.15035570341E+02  0.00000000000E+00 0.  1.
         13    1    1    2    0    0 -0.30943829803E+01  0.11388676845E+02 -0.38661055961E+01  0.12419142597E+02  0.10566000000E+00 0.  1.
        996    1    1    2    0    0  0.30943829803E+01 -0.11388676845E+02  0.88830479440E+02  0.10261642775E+03  0.50000000000E+02 0.  0.
<mgrwt>
<rscale>  0 0.51373896E+02</rscale>
<asrwt>0</asrwt>
<pdfrwt beam="1">  1       13 0.10000000E+01 0.51373896E+02</pdfrwt>
<pdfrwt beam="2">  1       22 0.15035594E+00 0.51373896E+02</pdfrwt>
<totfact> 0.74899547E-01</totfact>
</mgrwt>
</event>
<event>
 4    1  0.2486873E+000  0.5408481E+02  0.7957747E-01  0.1424477E+00
         13   -1    0    0    0    0  0.00000000000E+00  0.00000000000E+00  0.99999944178E+02  0.99999999998E+02  0.10566000000E+00 0.  1.
         22   -1    0    0    0    0 -0.00000000000E+00 -0.00000000000E+00 -0.14621306171E+02  0.14621306171E+02  0.00000000000E+00 0. -1.
         13    1    1    2    0    0 -0.45963703249E+01  0.20100743030E+02  0.13415491712E+02  0.24599859195E+02  0.10566000000E+00 0. -1.
        996    1    1    2    0    0  0.45963703249E+01 -0.20100743030E+02  0.71963146295E+02  0.90021446974E+02  0.50000000000E+02 0.  0.
<mgrwt>
<rscale>  0 0.54084808E+02</rscale>
<asrwt>0</asrwt>
<pdfrwt beam="1">  1       13 0.10000000E+01 0.54084808E+02</pdfrwt>
<pdfrwt beam="2">  1       22 0.14621330E+00 0.54084808E+02</pdfrwt>
<totfact> 0.78882195E-01</totfact>
</mgrwt>
</event>
<event>
 4    1  0.2486873E+000  0.5907621E+02  0.7957747E-01  0.1401750E+00
         13   -1    0    0    0    0  0.00000000000E+00  0.00000000000E+00  0.99999944170E+02  0.99999999990E+02  0.10566000000E+00 0.  1.
         22   -1    0    0    0    0 -0.00000000000E+00 -0.00000000000E+00 -0.43384593831E+02  0.43384593831E+02  0.00000000000E+00 0. -1.
         13    1    1    2    0    0 -0.15251270271E+02 -0.27520858067E+02 -0.26689014228E+02  0.41259102246E+02  0.10566000000E+00 0. -1.
        996    1    1    2    0    0  0.15251270271E+02  0.27520858067E+02  0.83304364567E+02  0.10212549158E+03  0.50000000000E+02 0.  0.
<mgrwt>
<rscale>  0 0.59076212E+02</rscale>
<asrwt>0</asrwt>
<pdfrwt beam="1">  1       13 0.10000000E+01 0.59076212E+02</pdfrwt>
<pdfrwt beam="2">  1       22 0.43384610E+00 0.59076212E+02</pdfrwt>
<totfact> 0.10537804E-01</totfact>
</mgrwt>
</event>
<event>
 4    1  0.2486873E+000  0.5180558E+02  0.7957747E-01  0.1435839E+00
         13   -1    0    0    0    0  0.00000000000E+00  0.00000000000E+00  0.99999944187E+02  0.10000000001E+03  0.10566000000E+00 0. -1.
         22   -1    0    0    0    0 -0.00000000000E+00 -0.00000000000E+00 -0.18953310471E+02  0.18953310471E+02  0.00000000000E+00 0.  1.
         13    1    1    2    0    0 -0.93502193144E+01 -0.98179107958E+01 -0.81386072491E+01  0.15813477341E+02  0.10566000000E+00 0.  1.
        996    1    1    2    0    0  0.93502193144E+01  0.98179107958E+01  0.89185240965E+02  0.10313983314E+03  0.50000000000E+02 0.  0.
<mgrwt>
<rscale>  0 0.51805579E+02</rscale>
<asrwt>0</asrwt>
<pdfrwt beam="1">  1       13 0.10000000E+01 0.51805579E+02</pdfrwt>
<pdfrwt beam="2">  1       22 0.18953333E+00 0.51805579E+02</pdfrwt>
<totfact> 0.50020153E-01</totfact>
</mgrwt>
</event>
<event>
 4    1  0.2486873E+000  0.5227269E+02  0.7957747E-01  0.1433455E+00
         13   -1    0    0    0    0  0.00000000000E+00  0.00000000000E+00  0.99999944180E+02  0.10000000000E+03  0.10566000000E+00 0. -1.
         22   -1    0    0    0    0 -0.00000000000E+00 -0.00000000000E+00 -0.17447444801E+02  0.17447444801E+02  0.00000000000E+00 0. -1.
         13    1    1    2    0    0 -0.13387276068E+02  0.72948387254E+01 -0.45088347027E+01  0.15898886344E+02  0.10566000000E+00 0.  1.
        996    1    1    2    0    0  0.13387276068E+02 -0.72948387254E+01  0.87061334083E+02  0.10154855846E+03  0.50000000000E+02 0.  0.
<mgrwt>
<rscale>  0 0.52272687E+02</rscale>
<asrwt>0</asrwt>
<pdfrwt beam="1">  1       13 0.10000000E+01 0.52272687E+02</pdfrwt>
<pdfrwt beam="2">  1       22 0.17447468E+00 0.52272687E+02</pdfrwt>
<totfact> 0.58109183E-01</totfact>
</mgrwt>
</event>
<event>
 4    1  0.2486873E+000  0.5133249E+02  0.7957747E-01  0.1438284E+00
         13   -1    0    0    0    0  0.00000000000E+00  0.00000000000E+00  0.99999944180E+02  0.10000000000E+03  0.10566000000E+00 0.  1.
         22   -1    0    0    0    0 -0.00000000000E+00 -0.00000000000E+00 -0.10583883767E+02  0.10583883767E+02  0.00000000000E+00 0.  1.
         13    1    1    2    0    0 -0.26850379500E+01 -0.11305520262E+02  0.29378196293E+02  0.31592939063E+02  0.10566000000E+00 0. -1.
        996    1    1    2    0    0  0.26850379500E+01  0.11305520262E+02  0.60037864120E+02  0.78990944704E+02  0.50000000000E+02 0.  0.
<mgrwt>
<rscale>  0 0.51332487E+02</rscale>
<asrwt>0</asrwt>
<pdfrwt beam="1">  1       13 0.10000000E+01 0.51332487E+02</pdfrwt>
<pdfrwt beam="2">  1       22 0.10583909E+00 0.51332487E+02</pdfrwt>
<totfact> 0.12956520E+00</totfact>
</mgrwt>
</event>
<event>
 4    1  0.2486873E+000  0.5121371E+02  0.7957747E-01  0.1438903E+00
         13   -1    0    0    0    0  0.00000000000E+00  0.00000000000E+00  0.99999944176E+02  0.99999999997E+02  0.10566000000E+00 0. -1.
         22   -1    0    0    0    0 -0.00000000000E+00 -0.00000000000E+00 -0.10795949100E+02  0.10795949100E+02  0.00000000000E+00 0. -1.
         13    1    1    2    0    0  0.31727894143E+01 -0.10619656802E+02  0.48197545514E+01  0.12086558701E+02  0.10566000000E+00 0.  1.
        996    1    1    2    0    0 -0.31727894143E+01  0.10619656802E+02  0.84384240525E+02  0.98709390395E+02  0.50000000000E+02 0.  0.
<mgrwt>
<rscale>  0 0.51213706E+02</rscale>
<asrwt>0</asrwt>
<pdfrwt beam="1">  1       13 0.10000000E+01 0.51213706E+02</pdfrwt>
<pdfrwt beam="2">  1       22 0.10795974E+00 0.51213706E+02</pdfrwt>
<totfact> 0.12579355E+00</totfact>
</mgrwt>
</event>
<event>
 4    1  0.2486873E+000  0.5340243E+02  0.7957747E-01  0.1427809E+00
         13   -1    0    0    0    0  0.00000000000E+00  0.00000000000E+00  0.99999944170E+02  0.99999999990E+02  0.10566000000E+00 0.  1.
         22   -1    0    0    0    0 -0.00000000000E+00 -0.00000000000E+00 -0.78377001206E+02  0.78377001206E+02  0.00000000000E+00 0. -1.
         13    1    1    2    0    0 -0.61940876037E+01  0.17704589830E+02 -0.69922164499E+02  0.72394333166E+02  0.10566000000E+00 0. -1.
        996    1    1    2    0    0  0.61940876037E+01 -0.17704589830E+02  0.91545107463E+02  0.10598266803E+03  0.50000000000E+02 0.  0.
<mgrwt>
<rscale>  0 0.53402427E+02</rscale>
<asrwt>0</asrwt>
<pdfrwt beam="1">  1       13 0.10000000E+01 0.53402427E+02</pdfrwt>
<pdfrwt beam="2">  1       22 0.78377007E+00 0.53402427E+02</pdfrwt>
<totfact> 0.35845740E-02</totfact>
</mgrwt>
</event>
<event>
 4    1  0.2486873E+000  0.5379750E+02  0.7957747E-01  0.1425873E+00
         13   -1    0    0    0    0  0.00000000000E+00  0.00000000000E+00  0.99999944181E+02  0.10000000000E+03  0.10566000000E+00 0. -1.
         22   -1    0    0    0    0 -0.00000000000E+00 -0.00000000000E+00 -0.13988324898E+02  0.13988324898E+02  0.00000000000E+00 0.  1.
         13    1    1    2    0    0  0.80571182128E+01 -0.18145355417E+02  0.14917577797E+02  0.24833774753E+02  0.10566000000E+00 0.  1.
        996    1    1    2    0    0 -0.80571182128E+01  0.18145355417E+02  0.71094041485E+02  0.89154550147E+02  0.50000000000E+02 0.  0.
<mgrwt>
<rscale>  0 0.53797501E+02</rscale>
<asrwt>0</asrwt>
<pdfrwt beam="1">  1       13 0.10000000E+01 0.53797501E+02</pdfrwt>
<pdfrwt beam="2">  1       22 0.13988349E+00 0.53797501E+02</pdfrwt>
<totfact> 0.84755593E-01</totfact>
</mgrwt>
</event>
<event>
 4    1  0.2486873E+000  0.5127434E+02  0.7957747E-01  0.1438587E+00
         13   -1    0    0    0    0  0.00000000000E+00  0.00000000000E+00  0.99999944178E+02  0.99999999998E+02  0.10566000000E+00 0.  1.
         22   -1    0    0    0    0 -0.00000000000E+00 -0.00000000000E+00 -0.12961400378E+02  0.12961400378E+02  0.00000000000E+00 0.  1.
         13    1    1    2    0    0  0.11192203002E+02 -0.19475368133E+01 -0.65295609449E+00  0.11379623165E+02  0.10566000000E+00 0. -1.
        996    1    1    2    0    0 -0.11192203002E+02  0.19475368133E+01  0.87691499894E+02  0.10158177721E+03  0.50000000000E+02 0.  0.
<mgrwt>
<rscale>  0 0.51274344E+02</rscale>
<asrwt>0</asrwt>
<pdfrwt beam="1">  1       13 0.10000000E+01 0.51274344E+02</pdfrwt>
<pdfrwt beam="2">  1       22 0.12961425E+00 0.51274344E+02</pdfrwt>
<totfact> 0.95220962E-01</totfact>
</mgrwt>
</event>
<event>
 4    1  0.2486873E+000  0.5186567E+02  0.7957747E-01  0.1435531E+00
         13   -1    0    0    0    0  0.00000000000E+00  0.00000000000E+00  0.99999944187E+02  0.10000000001E+03  0.10566000000E+00 0.  1.
         22   -1    0    0    0    0 -0.00000000000E+00 -0.00000000000E+00 -0.19093524971E+02  0.19093524971E+02  0.00000000000E+00 0.  1.
         13    1    1    2    0    0 -0.13768838236E+02 -0.68354908321E+00 -0.81644051382E+01  0.16022384997E+02  0.10566000000E+00 0. -1.
        996    1    1    2    0    0  0.13768838236E+02  0.68354908321E+00  0.89070824354E+02  0.10307113998E+03  0.50000000000E+02 0.  0.
<mgrwt>
<rscale>  0 0.51865674E+02</rscale>
<asrwt>0</asrwt>
<pdfrwt beam="1">  1       13 0.10000000E+01 0.51865674E+02</pdfrwt>
<pdfrwt beam="2">  1       22 0.19093548E+00 0.51865674E+02</pdfrwt>
<totfact> 0.49354922E-01</totfact>
</mgrwt>
</event>
<event>
 4    1  0.2486873E+000  0.6362703E+02  0.7957747E-01  0.1383212E+00
         13   -1    0    0    0    0  0.00000000000E+00  0.00000000000E+00  0.99999944182E+02  0.10000000000E+03  0.10566000000E+00 0.  1.
         22   -1    0    0    0    0 -0.00000000000E+00 -0.00000000000E+00 -0.33576025477E+02  0.33576025477E+02  0.00000000000E+00 0. -1.
         13    1    1    2    0    0  0.12734862638E+02 -0.37232009812E+02 -0.29279729527E+01  0.39458629863E+02  0.10566000000E+00 0. -1.
        996    1    1    2    0    0 -0.12734862638E+02  0.37232009812E+02  0.69351891657E+02  0.94117395616E+02  0.50000000000E+02 0.  0.
<mgrwt>
<rscale>  0 0.63627033E+02</rscale>
<asrwt>0</asrwt>
<pdfrwt beam="1">  1       13 0.10000000E+01 0.63627033E+02</pdfrwt>
<pdfrwt beam="2">  1       22 0.33576044E+00 0.63627033E+02</pdfrwt>
<totfact> 0.17094981E-01</totfact>
</mgrwt>
</event>
<event>
 4    1  0.2486873E+000  0.5419923E+02  0.7957747E-01  0.1423924E+00
         13   -1    0    0    0    0  0.00000000000E+00  0.00000000000E+00  0.99999944178E+02  0.99999999998E+02  0.10566000000E+00 0.  1.
         22   -1    0    0    0    0 -0.00000000000E+00 -0.00000000000E+00 -0.34817998171E+02  0.34817998171E+02  0.00000000000E+00 0. -1.
         13    1    1    2    0    0  0.86853973721E+01  0.19029465445E+02 -0.23139204052E+02  0.31192797420E+02  0.10566000000E+00 0. -1.
        996    1    1    2    0    0 -0.86853973721E+01 -0.19029465445E+02  0.88321150059E+02  0.10362520075E+03  0.50000000000E+02 0.  0.
<mgrwt>
<rscale>  0 0.54199231E+02</rscale>
<asrwt>0</asrwt>
<pdfrwt beam="1">  1       13 0.10000000E+01 0.54199231E+02</pdfrwt>
<pdfrwt beam="2">  1       22 0.34818016E+00 0.54199231E+02</pdfrwt>
<totfact> 0.15893595E-01</totfact>
</mgrwt>
</event>
<event>
 4    1  0.2486873E+000  0.5599545E+02  0.7957747E-01  0.1415449E+00
         13   -1    0    0    0    0  0.00000000000E+00  0.00000000000E+00  0.99999944177E+02  0.99999999997E+02  0.10566000000E+00 0.  1.
         22   -1    0    0    0    0 -0.00000000000E+00 -0.00000000000E+00 -0.29867253289E+02  0.29867253289E+02  0.00000000000E+00 0. -1.
         13    1    1    2    0    0 -0.22755474583E+02  0.10847964497E+02 -0.13975825820E+02  0.28824032137E+02  0.10566000000E+00 0. -1.
        996    1    1    2    0    0  0.22755474583E+02 -0.10847964497E+02  0.84108516708E+02  0.10104322115E+03  0.50000000000E+02 0.  0.
<mgrwt>
<rscale>  0 0.55995446E+02</rscale>
<asrwt>0</asrwt>
<pdfrwt beam="1">  1       13 0.10000000E+01 0.55995446E+02</pdfrwt>
<pdfrwt beam="2">  1       22 0.29867273E+00 0.55995446E+02</pdfrwt>
<totfact> 0.20982329E-01</totfact>
</mgrwt>
</event>
<event>
 4    1  0.2486873E+000  0.5763809E+02  0.7957747E-01  0.1408020E+00
         13   -1    0    0    0    0  0.00000000000E+00  0.00000000000E+00  0.99999944174E+02  0.99999999994E+02  0.10566000000E+00 0. -1.
         22   -1    0    0    0    0 -0.00000000000E+00 -0.00000000000E+00 -0.29081878185E+02  0.29081878185E+02  0.00000000000E+00 0.  1.
         13    1    1    2    0    0 -0.20877888531E+02 -0.19653576050E+02 -0.94425446667E+01  0.30188111814E+02  0.10566000000E+00 0.  1.
        996    1    1    2    0    0  0.20877888531E+02  0.19653576050E+02  0.80360610656E+02  0.98893766366E+02  0.50000000000E+02 0.  0.
<mgrwt>
<rscale>  0 0.57638089E+02</rscale>
<asrwt>0</asrwt>
<pdfrwt beam="1">  1       13 0.10000000E+01 0.57638089E+02</pdfrwt>
<pdfrwt beam="2">  1       22 0.29081898E+00 0.57638089E+02</pdfrwt>
<totfact> 0.22114430E-01</totfact>
</mgrwt>
</event>
<event>
 4    1  0.2486873E+000  0.5190509E+02  0.7957747E-01  0.1435329E+00
         13   -1    0    0    0    0  0.00000000000E+00  0.00000000000E+00  0.99999944172E+02  0.99999999992E+02  0.10566000000E+00 0. -1.
         22   -1    0    0    0    0 -0.00000000000E+00 -0.00000000000E+00 -0.12366579250E+02  0.12366579250E+02  0.00000000000E+00 0. -1.
         13    1    1    2    0    0  0.11117664533E+02 -0.83985737999E+01  0.50393246524E+01  0.14817032885E+02  0.10566000000E+00 0.  1.
        996    1    1    2    0    0 -0.11117664533E+02  0.83985737999E+01  0.82594040269E+02  0.97549546357E+02  0.50000000000E+02 0.  0.
<mgrwt>
<rscale>  0 0.51905091E+02</rscale>
<asrwt>0</asrwt>
<pdfrwt beam="1">  1       13 0.10000000E+01 0.51905091E+02</pdfrwt>
<pdfrwt beam="2">  1       22 0.12366604E+00 0.51905091E+02</pdfrwt>
<totfact> 0.10260553E+00</totfact>
</mgrwt>
</event>
<event>
 4    1  0.2486873E+000  0.5172665E+02  0.7957747E-01  0.1436245E+00
         13   -1    0    0    0    0  0.00000000000E+00  0.00000000000E+00  0.99999944181E+02  0.10000000000E+03  0.10566000000E+00 0. -1.
         22   -1    0    0    0    0 -0.00000000000E+00 -0.00000000000E+00 -0.24686716427E+02  0.24686716427E+02  0.00000000000E+00 0.  1.
         13    1    1    2    0    0 -0.12071250197E+02  0.54709088425E+01 -0.15365584066E+02  0.20291827483E+02  0.10566000000E+00 0.  1.
        996    1    1    2    0    0  0.12071250197E+02 -0.54709088425E+01  0.90678811820E+02  0.10439488895E+03  0.50000000000E+02 0.  0.
<mgrwt>
<rscale>  0 0.51726646E+02</rscale>
<asrwt>0</asrwt>
<pdfrwt beam="1">  1       13 0.10000000E+01 0.51726646E+02</pdfrwt>
<pdfrwt beam="2">  1       22 0.24686737E+00 0.51726646E+02</pdfrwt>
<totfact> 0.30206344E-01</totfact>
</mgrwt>
</event>
<event>
 4    1  0.2486873E+000  0.5176431E+02  0.7957747E-01  0.1436051E+00
         13   -1    0    0    0    0  0.00000000000E+00  0.00000000000E+00  0.99999944172E+02  0.99999999993E+02  0.10566000000E+00 0.  1.
         22   -1    0    0    0    0 -0.00000000000E+00 -0.00000000000E+00 -0.16383407714E+02  0.16383407714E+02  0.00000000000E+00 0. -1.
         13    1    1    2    0    0 -0.18099457594E+00  0.13398176501E+02 -0.45439442712E+01  0.14149292780E+02  0.10566000000E+00 0. -1.
        996    1    1    2    0    0  0.18099457594E+00 -0.13398176501E+02  0.88160480729E+02  0.10223411493E+03  0.50000000000E+02 0.  0.
<mgrwt>
<rscale>  0 0.51764311E+02</rscale>
<asrwt>0</asrwt>
<pdfrwt beam="1">  1       13 0.10000000E+01 0.51764311E+02</pdfrwt>
<pdfrwt beam="2">  1       22 0.16383431E+00 0.51764311E+02</pdfrwt>
<totfact> 0.64802877E-01</totfact>
</mgrwt>
</event>
<event>
 4    1  0.2486873E+000  0.5204149E+02  0.7957747E-01  0.1434631E+00
         13   -1    0    0    0    0  0.00000000000E+00  0.00000000000E+00  0.99999944175E+02  0.99999999995E+02  0.10566000000E+00 0.  1.
         22   -1    0    0    0    0 -0.00000000000E+00 -0.00000000000E+00 -0.13380087732E+02  0.13380087732E+02  0.00000000000E+00 0. -1.
         13    1    1    2    0    0 -0.10677881117E+02  0.97107862415E+01  0.27757863395E+01  0.14698049817E+02  0.10566000000E+00 0. -1.
        996    1    1    2    0    0  0.10677881117E+02 -0.97107862415E+01  0.83844070104E+02  0.98682037910E+02  0.50000000000E+02 0.  0.
<mgrwt>
<rscale>  0 0.52041488E+02</rscale>
<asrwt>0</asrwt>
<pdfrwt beam="1">  1       13 0.10000000E+01 0.52041488E+02</pdfrwt>
<pdfrwt beam="2">  1       22 0.13380112E+00 0.52041488E+02</pdfrwt>
<totfact> 0.90699170E-01</totfact>
</mgrwt>
</event>
<event>
 4    1  0.2486873E+000  0.5872349E+02  0.7957747E-01  0.1403268E+00
         13   -1    0    0    0    0  0.00000000000E+00  0.00000000000E+00  0.99999944178E+02  0.99999999998E+02  0.10566000000E+00 0. -1.
         22   -1    0    0    0    0 -0.00000000000E+00 -0.00000000000E+00 -0.32924993301E+02  0.32924993301E+02  0.00000000000E+00 0.  1.
         13    1    1    2    0    0 -0.77803590413E+01  0.29797896010E+02 -0.13164308820E+02  0.33492667618E+02  0.10566000000E+00 0.  1.
        996    1    1    2    0    0  0.77803590413E+01 -0.29797896010E+02  0.80239259697E+02  0.99432325680E+02  0.50000000000E+02 0.  0.
<mgrwt>
<rscale>  0 0.58723493E+02</rscale>
<asrwt>0</asrwt>
<pdfrwt beam="1">  1       13 0.10000000E+01 0.58723493E+02</pdfrwt>
<pdfrwt beam="2">  1       22 0.32925012E+00 0.58723493E+02</pdfrwt>
<totfact> 0.17616615E-01</totfact>
</mgrwt>
</event>
<event>
 4    1  0.2486873E+000  0.5356249E+02  0.7957747E-01  0.1427022E+00
         13   -1    0    0    0    0  0.00000000000E+00  0.00000000000E+00  0.99999944178E+02  0.99999999998E+02  0.10566000000E+00 0.  1.
         22   -1    0    0    0    0 -0.00000000000E+00 -0.00000000000E+00 -0.14769620143E+02  0.14769620143E+02  0.00000000000E+00 0. -1.
         13    1    1    2    0    0 -0.18923720127E+02  0.32914255563E+01  0.80559221628E+01  0.20829059306E+02  0.10566000000E+00 0. -1.
        996    1    1    2    0    0  0.18923720127E+02 -0.32914255563E+01  0.77174401873E+02  0.93940560835E+02  0.50000000000E+02 0.  0.
<mgrwt>
<rscale>  0 0.53562493E+02</rscale>
<asrwt>0</asrwt>
<pdfrwt beam="1">  1       13 0.10000000E+01 0.53562493E+02</pdfrwt>
<pdfrwt beam="2">  1       22 0.14769644E+00 0.53562493E+02</pdfrwt>
<totfact> 0.77496672E-01</totfact>
</mgrwt>
</event>
<event>
 4    1  0.2486873E+000  0.5789221E+02  0.7957747E-01  0.1406896E+00
         13   -1    0    0    0    0  0.00000000000E+00  0.00000000000E+00  0.99999944178E+02  0.99999999998E+02  0.10566000000E+00 0. -1.
         22   -1    0    0    0    0 -0.00000000000E+00 -0.00000000000E+00 -0.28056073255E+02  0.28056073255E+02  0.00000000000E+00 0.  1.
         13    1    1    2    0    0  0.19863012216E+02  0.21376815156E+02 -0.71452210884E+01  0.30042849881E+02  0.10566000000E+00 0.  1.
        996    1    1    2    0    0 -0.19863012216E+02 -0.21376815156E+02  0.79089092012E+02  0.98013223372E+02  0.50000000000E+02 0.  0.
<mgrwt>
<rscale>  0 0.57892206E+02</rscale>
<asrwt>0</asrwt>
<pdfrwt beam="1">  1       13 0.10000000E+01 0.57892206E+02</pdfrwt>
<pdfrwt beam="2">  1       22 0.28056093E+00 0.57892206E+02</pdfrwt>
<totfact> 0.23706257E-01</totfact>
</mgrwt>
</event>
<event>
 4    1  0.2486873E+000  0.6023439E+02  0.7957747E-01  0.1396851E+00
         13   -1    0    0    0    0  0.00000000000E+00  0.00000000000E+00  0.99999944178E+02  0.99999999998E+02  0.10566000000E+00 0. -1.
         22   -1    0    0    0    0 -0.00000000000E+00 -0.00000000000E+00 -0.48842385064E+02  0.48842385064E+02  0.00000000000E+00 0.  1.
         13    1    1    2    0    0  0.33563387879E+02  0.12964252964E+01 -0.31846368279E+02  0.46285894839E+02  0.10566000000E+00 0.  1.
        996    1    1    2    0    0 -0.33563387879E+02 -0.12964252964E+01  0.83003927392E+02  0.10255649022E+03  0.50000000000E+02 0.  0.
<mgrwt>
<rscale>  0 0.60234390E+02</rscale>
<asrwt>0</asrwt>
<pdfrwt beam="1">  1       13 0.10000000E+01 0.60234390E+02</pdfrwt>
<pdfrwt beam="2">  1       22 0.48842399E+00 0.60234390E+02</pdfrwt>
<totfact> 0.78793643E-02</totfact>
</mgrwt>
</event>
<event>
 4    1  0.2486873E+000  0.6122308E+02  0.7957747E-01  0.1392770E+00
         13   -1    0    0    0    0  0.00000000000E+00  0.00000000000E+00  0.99999944172E+02  0.99999999992E+02  0.10566000000E+00 0.  1.
         22   -1    0    0    0    0 -0.00000000000E+00 -0.00000000000E+00 -0.60683912783E+02  0.60683912783E+02  0.00000000000E+00 0. -1.
         13    1    1    2    0    0 -0.28505674554E+02  0.20873229200E+02 -0.44543268955E+02  0.56854016149E+02  0.10566000000E+00 0. -1.
        996    1    1    2    0    0  0.28505674554E+02 -0.20873229200E+02  0.83859300345E+02  0.10382989663E+03  0.50000000000E+02 0.  0.
<mgrwt>
<rscale>  0 0.61223077E+02</rscale>
<asrwt>0</asrwt>
<pdfrwt beam="1">  1       13 0.10000000E+01 0.61223077E+02</pdfrwt>
<pdfrwt beam="2">  1       22 0.60683924E+00 0.61223077E+02</pdfrwt>
<totfact> 0.66289794E-02</totfact>
</mgrwt>
</event>
<event>
 4    1  0.2486873E+000  0.5754188E+02  0.7957747E-01  0.1408447E+00
         13   -1    0    0    0    0  0.00000000000E+00  0.00000000000E+00  0.99999944172E+02  0.99999999992E+02  0.10566000000E+00 0. -1.
         22   -1    0    0    0    0 -0.00000000000E+00 -0.00000000000E+00 -0.55972230041E+02  0.55972230041E+02  0.00000000000E+00 0.  1.
         13    1    1    2    0    0 -0.13335214437E+02 -0.25164250480E+02 -0.43039328379E+02  0.51608743422E+02  0.10566000000E+00 0.  1.
        996    1    1    2    0    0  0.13335214437E+02  0.25164250480E+02  0.87067042510E+02  0.10436348661E+03  0.50000000000E+02 0.  0.
<mgrwt>
<rscale>  0 0.57541876E+02</rscale>
<asrwt>0</asrwt>
<pdfrwt beam="1">  1       13 0.10000000E+01 0.57541876E+02</pdfrwt>
<pdfrwt beam="2">  1       22 0.55972242E+00 0.57541876E+02</pdfrwt>
<totfact> 0.58577740E-02</totfact>
</mgrwt>
</event>
<event>
 4    1  0.2486873E+000  0.5628171E+02  0.7957747E-01  0.1414133E+00
         13   -1    0    0    0    0  0.00000000000E+00  0.00000000000E+00  0.99999944170E+02  0.99999999990E+02  0.10566000000E+00 0. -1.
         22   -1    0    0    0    0 -0.00000000000E+00 -0.00000000000E+00 -0.18992881085E+02  0.18992881085E+02  0.00000000000E+00 0.  1.
         13    1    1    2    0    0  0.20819505601E+02 -0.15302907905E+02  0.84902760405E+01  0.27197918212E+02  0.10566000000E+00 0.  1.
        996    1    1    2    0    0 -0.20819505601E+02  0.15302907905E+02  0.72516787044E+02  0.91794962863E+02  0.50000000000E+02 0.  0.
<mgrwt>
<rscale>  0 0.56281709E+02</rscale>
<asrwt>0</asrwt>
<pdfrwt beam="1">  1       13 0.10000000E+01 0.56281709E+02</pdfrwt>
<pdfrwt beam="2">  1       22 0.18992904E+00 0.56281709E+02</pdfrwt>
<totfact> 0.50225487E-01</totfact>
</mgrwt>
</event>
<event>
 4    1  0.2486873E+000  0.5278056E+02  0.7957747E-01  0.1430896E+00
         13   -1    0    0    0    0  0.00000000000E+00  0.00000000000E+00  0.99999944179E+02  0.99999999999E+02  0.10566000000E+00 0. -1.
         22   -1    0    0    0    0 -0.00000000000E+00 -0.00000000000E+00 -0.12955429718E+02  0.12955429718E+02  0.00000000000E+00 0.  1.
         13    1    1    2    0    0 -0.16811735124E+02 -0.17756109465E+01  0.10244701538E+02  0.19767455723E+02  0.10566000000E+00 0.  1.
        996    1    1    2    0    0  0.16811735124E+02  0.17756109465E+01  0.76799812922E+02  0.93187973994E+02  0.50000000000E+02 0.  0.
<mgrwt>
<rscale>  0 0.52780557E+02</rscale>
<asrwt>0</asrwt>
<pdfrwt beam="1">  1       13 0.10000000E+01 0.52780557E+02</pdfrwt>
<pdfrwt beam="2">  1       22 0.12955454E+00 0.52780557E+02</pdfrwt>
<totfact> 0.95601582E-01</totfact>
</mgrwt>
</event>
<event>
 4    1  0.2486873E+000  0.5211887E+02  0.7957747E-01  0.1434237E+00
         13   -1    0    0    0    0  0.00000000000E+00  0.00000000000E+00  0.99999944182E+02  0.10000000000E+03  0.10566000000E+00 0.  1.
         22   -1    0    0    0    0 -0.00000000000E+00 -0.00000000000E+00 -0.11561730323E+02  0.11561730323E+02  0.00000000000E+00 0.  1.
         13    1    1    2    0    0 -0.12443785449E+02 -0.78440192119E+01  0.11689213979E+02  0.18788968071E+02  0.10566000000E+00 0. -1.
        996    1    1    2    0    0  0.12443785449E+02  0.78440192119E+01  0.76748999880E+02  0.92772762254E+02  0.50000000000E+02 0.  0.
<mgrwt>
<rscale>  0 0.52118868E+02</rscale>
<asrwt>0</asrwt>
<pdfrwt beam="1">  1       13 0.10000000E+01 0.52118868E+02</pdfrwt>
<pdfrwt beam="2">  1       22 0.11561755E+00 0.52118868E+02</pdfrwt>
<totfact> 0.11378339E+00</totfact>
</mgrwt>
</event>
<event>
 4    1  0.2486873E+000  0.7047472E+02  0.7957747E-01  0.1358486E+00
         13   -1    0    0    0    0  0.00000000000E+00  0.00000000000E+00  0.99999944178E+02  0.99999999998E+02  0.10566000000E+00 0.  1.
         22   -1    0    0    0    0 -0.00000000000E+00 -0.00000000000E+00 -0.54955287156E+02  0.54955287156E+02  0.00000000000E+00 0. -1.
         13    1    1    2    0    0 -0.27760498852E+02 -0.41183012654E+02 -0.24990981704E+02  0.55598976234E+02  0.10566000000E+00 0. -1.
        996    1    1    2    0    0  0.27760498852E+02  0.41183012654E+02  0.70035638726E+02  0.99356310920E+02  0.50000000000E+02 0.  0.
<mgrwt>
<rscale>  0 0.70474718E+02</rscale>
<asrwt>0</asrwt>
<pdfrwt beam="1">  1       13 0.10000000E+01 0.70474718E+02</pdfrwt>
<pdfrwt beam="2">  1       22 0.54955300E+00 0.70474718E+02</pdfrwt>
<totfact> 0.59549403E-02</totfact>
</mgrwt>
</event>
<event>
 4    1  0.2486873E+000  0.5139611E+02  0.7957747E-01  0.1437954E+00
         13   -1    0    0    0    0  0.00000000000E+00  0.00000000000E+00  0.99999944179E+02  0.99999999999E+02  0.10566000000E+00 0. -1.
         22   -1    0    0    0    0 -0.00000000000E+00 -0.00000000000E+00 -0.12681487438E+02  0.12681487438E+02  0.00000000000E+00 0. -1.
         13    1    1    2    0    0  0.76095292718E+01 -0.91463061680E+01  0.64580371181E+00  0.11915875072E+02  0.10566000000E+00 0.  1.
        996    1    1    2    0    0 -0.76095292718E+01  0.91463061680E+01  0.86672653029E+02  0.10076561236E+03  0.50000000000E+02 0.  0.
<mgrwt>
<rscale>  0 0.51396107E+02</rscale>
<asrwt>0</asrwt>
<pdfrwt beam="1">  1       13 0.10000000E+01 0.51396107E+02</pdfrwt>
<pdfrwt beam="2">  1       22 0.12681512E+00 0.51396107E+02</pdfrwt>
<totfact> 0.98561572E-01</totfact>
</mgrwt>
</event>
<event>
 4    1  0.2486873E+000  0.5102284E+02  0.7957747E-01  0.1439901E+00
         13   -1    0    0    0    0  0.00000000000E+00  0.00000000000E+00  0.99999944183E+02  0.10000000000E+03  0.10566000000E+00 0. -1.
         22   -1    0    0    0    0 -0.00000000000E+00 -0.00000000000E+00 -0.10088466935E+02  0.10088466935E+02  0.00000000000E+00 0.  1.
         13    1    1    2    0    0  0.85033141529E+01 -0.55698962185E+01  0.57795018721E+01  0.11693754803E+02  0.10566000000E+00 0.  1.
        996    1    1    2    0    0 -0.85033141529E+01  0.55698962185E+01  0.84131975376E+02  0.98394712135E+02  0.50000000000E+02 0.  0.
<mgrwt>
<rscale>  0 0.51022839E+02</rscale>
<asrwt>0</asrwt>
<pdfrwt beam="1">  1       13 0.10000000E+01 0.51022839E+02</pdfrwt>
<pdfrwt beam="2">  1       22 0.10088492E+00 0.51022839E+02</pdfrwt>
<totfact> 0.13886107E+00</totfact>
</mgrwt>
</event>
<event>
 4    1  0.2486873E+000  0.6956161E+02  0.7957747E-01  0.1361590E+00
         13   -1    0    0    0    0  0.00000000000E+00  0.00000000000E+00  0.99999944177E+02  0.99999999997E+02  0.10566000000E+00 0. -1.
         22   -1    0    0    0    0 -0.00000000000E+00 -0.00000000000E+00 -0.61054388412E+02  0.61054388412E+02  0.00000000000E+00 0.  1.
         13    1    1    2    0    0  0.39802063989E+02  0.27470229363E+02 -0.34873899318E+02  0.59623970152E+02  0.10566000000E+00 0.  1.
        996    1    1    2    0    0 -0.39802063989E+02 -0.27470229363E+02  0.73819455083E+02  0.10143041826E+03  0.50000000000E+02 0.  0.
<mgrwt>
<rscale>  0 0.69561612E+02</rscale>
<asrwt>0</asrwt>
<pdfrwt beam="1">  1       13 0.10000000E+01 0.69561612E+02</pdfrwt>
<pdfrwt beam="2">  1       22 0.61054399E+00 0.69561612E+02</pdfrwt>
<totfact> 0.67950029E-02</totfact>
</mgrwt>
</event>
<event>
 4    1  0.2486873E+000  0.5171586E+02  0.7957747E-01  0.1436300E+00
         13   -1    0    0    0    0  0.00000000000E+00  0.00000000000E+00  0.99999944183E+02  0.10000000000E+03  0.10566000000E+00 0.  1.
         22   -1    0    0    0    0 -0.00000000000E+00 -0.00000000000E+00 -0.10718016500E+02  0.10718016500E+02  0.00000000000E+00 0.  1.
         13    1    1    2    0    0  0.96012720183E+01  0.90744669947E+01  0.24398646360E+02  0.27745909317E+02  0.10566000000E+00 0. -1.
        996    1    1    2    0    0 -0.96012720183E+01 -0.90744669947E+01  0.64883281324E+02  0.82972107186E+02  0.50000000000E+02 0.  0.
<mgrwt>
<rscale>  0 0.51715862E+02</rscale>
<asrwt>0</asrwt>
<pdfrwt beam="1">  1       13 0.10000000E+01 0.51715862E+02</pdfrwt>
<pdfrwt beam="2">  1       22 0.10718041E+00 0.51715862E+02</pdfrwt>
<totfact> 0.12729805E+00</totfact>
</mgrwt>
</event>
<event>
 4    1  0.2486873E+000  0.5132044E+02  0.7957747E-01  0.1438347E+00
         13   -1    0    0    0    0  0.00000000000E+00  0.00000000000E+00  0.99999944175E+02  0.99999999995E+02  0.10566000000E+00 0.  1.
         22   -1    0    0    0    0 -0.00000000000E+00 -0.00000000000E+00 -0.11010167152E+02  0.11010167152E+02  0.00000000000E+00 0.  1.
         13    1    1    2    0    0  0.10149882997E+02 -0.55468712395E+01  0.50425880991E+01  0.12618508794E+02  0.10566000000E+00 0. -1.
        996    1    1    2    0    0 -0.10149882997E+02  0.55468712395E+01  0.83947188924E+02  0.98391658354E+02  0.50000000000E+02 0.  0.
<mgrwt>
<rscale>  0 0.51320443E+02</rscale>
<asrwt>0</asrwt>
<pdfrwt beam="1">  1       13 0.10000000E+01 0.51320443E+02</pdfrwt>
<pdfrwt beam="2">  1       22 0.11010192E+00 0.51320443E+02</pdfrwt>
<totfact> 0.12221074E+00</totfact>
</mgrwt>
</event>
<event>
 4    1  0.2486873E+000  0.5668754E+02  0.7957747E-01  0.1412283E+00
         13   -1    0    0    0    0  0.00000000000E+00  0.00000000000E+00  0.99999944176E+02  0.99999999996E+02  0.10566000000E+00 0.  1.
         22   -1    0    0    0    0 -0.00000000000E+00 -0.00000000000E+00 -0.17389018041E+02  0.17389018041E+02  0.00000000000E+00 0. -1.
         13    1    1    2    0    0 -0.22352756263E+02 -0.14622961664E+02  0.26119271492E+02  0.37359125093E+02  0.10566000000E+00 0. -1.
        996    1    1    2    0    0  0.22352756263E+02  0.14622961664E+02  0.56491654643E+02  0.80029892945E+02  0.50000000000E+02 0.  0.
<mgrwt>
<rscale>  0 0.56687536E+02</rscale>
<asrwt>0</asrwt>
<pdfrwt beam="1">  1       13 0.10000000E+01 0.56687536E+02</pdfrwt>
<pdfrwt beam="2">  1       22 0.17389041E+00 0.56687536E+02</pdfrwt>
<totfact> 0.58927933E-01</totfact>
</mgrwt>
</event>
<event>
 4    1  0.2486873E+000  0.6132626E+02  0.7957747E-01  0.1392349E+00
         13   -1    0    0    0    0  0.00000000000E+00  0.00000000000E+00  0.99999944181E+02  0.10000000000E+03  0.10566000000E+00 0.  1.
         22   -1    0    0    0    0 -0.00000000000E+00 -0.00000000000E+00 -0.47796578335E+02  0.47796578335E+02  0.00000000000E+00 0. -1.
         13    1    1    2    0    0 -0.36134791480E+01 -0.35324958134E+02 -0.29133310500E+02  0.45931153300E+02  0.10566000000E+00 0. -1.
        996    1    1    2    0    0  0.36134791480E+01  0.35324958134E+02  0.81336676346E+02  0.10186542504E+03  0.50000000000E+02 0.  0.
<mgrwt>
<rscale>  0 0.61326258E+02</rscale>
<asrwt>0</asrwt>
<pdfrwt beam="1">  1       13 0.10000000E+01 0.61326258E+02</pdfrwt>
<pdfrwt beam="2">  1       22 0.47796593E+00 0.61326258E+02</pdfrwt>
<totfact> 0.83543874E-02</totfact>
</mgrwt>
</event>
<event>
 4    1  0.2486873E+000  0.5100754E+02  0.7957747E-01  0.1439982E+00
         13   -1    0    0    0    0  0.00000000000E+00  0.00000000000E+00  0.99999944182E+02  0.10000000000E+03  0.10566000000E+00 0.  1.
         22   -1    0    0    0    0 -0.00000000000E+00 -0.00000000000E+00 -0.93543356065E+01  0.93543356065E+01  0.00000000000E+00 0.  1.
         13    1    1    2    0    0 -0.94822492161E+01  0.34432684829E+01  0.13047453432E+02  0.16492918273E+02  0.10566000000E+00 0. -1.
        996    1    1    2    0    0  0.94822492161E+01 -0.34432684829E+01  0.77598155143E+02  0.92861417336E+02  0.50000000000E+02 0.  0.
<mgrwt>
<rscale>  0 0.51007540E+02</rscale>
<asrwt>0</asrwt>
<pdfrwt beam="1">  1       13 0.10000000E+01 0.51007540E+02</pdfrwt>
<pdfrwt beam="2">  1       22 0.93543609E-01 0.51007540E+02</pdfrwt>
<totfact> 0.15477968E+00</totfact>
</mgrwt>
</event>
<event>
 4    1  0.2486873E+000  0.5314739E+02  0.7957747E-01  0.1429069E+00
         13   -1    0    0    0    0  0.00000000000E+00  0.00000000000E+00  0.99999944180E+02  0.10000000000E+03  0.10566000000E+00 0.  1.
         22   -1    0    0    0    0 -0.00000000000E+00 -0.00000000000E+00 -0.26195817452E+02  0.26195817452E+02  0.00000000000E+00 0. -1.
         13    1    1    2    0    0 -0.16515910844E+02  0.72020478197E+01 -0.14502302867E+02  0.23129478081E+02  0.10566000000E+00 0. -1.
        996    1    1    2    0    0  0.16515910844E+02 -0.72020478197E+01  0.88306429594E+02  0.10306633937E+03  0.50000000000E+02 0.  0.
<mgrwt>
<rscale>  0 0.53147388E+02</rscale>
<asrwt>0</asrwt>
<pdfrwt beam="1">  1       13 0.10000000E+01 0.53147388E+02</pdfrwt>
<pdfrwt beam="2">  1       22 0.26195838E+00 0.53147388E+02</pdfrwt>
<totfact> 0.26936494E-01</totfact>
</mgrwt>
</event>
<event>
 4    1  0.2486873E+000  0.7572636E+02  0.7957747E-01  0.1341636E+00
         13   -1    0    0    0    0  0.00000000000E+00  0.00000000000E+00  0.99999944172E+02  0.99999999993E+02  0.10566000000E+00 0.  1.
         22   -1    0    0    0    0 -0.00000000000E+00 -0.00000000000E+00 -0.44400543050E+02  0.44400543050E+02  0.00000000000E+00 0. -1.
         13    1    1    2    0    0 -0.39504043770E+02 -0.40913463581E+02  0.16736311191E+02  0.59284030335E+02  0.10566000000E+00 0. -1.
        996    1    1    2    0    0  0.39504043770E+02  0.40913463581E+02  0.38863089931E+02  0.85116512707E+02  0.50000000000E+02 0.  0.
<mgrwt>
<rscale>  0 0.75726356E+02</rscale>
<asrwt>0</asrwt>
<pdfrwt beam="1">  1       13 0.10000000E+01 0.75726356E+02</pdfrwt>
<pdfrwt beam="2">  1       22 0.44400559E+00 0.75726356E+02</pdfrwt>
<totfact> 0.10085452E-01</totfact>
</mgrwt>
</event>
<event>
 4    1  0.2486873E+000  0.5242402E+02  0.7957747E-01  0.1432689E+00
         13   -1    0    0    0    0  0.00000000000E+00  0.00000000000E+00  0.99999944166E+02  0.99999999986E+02  0.10566000000E+00 0.  1.
         22   -1    0    0    0    0 -0.00000000000E+00 -0.00000000000E+00 -0.71349875320E+02  0.71349875320E+02  0.00000000000E+00 0. -1.
         13    1    1    2    0    0  0.22667540775E+01  0.15592922469E+02 -0.63448684509E+02  0.65376021102E+02  0.10566000000E+00 0. -1.
        996    1    1    2    0    0 -0.22667540775E+01 -0.15592922469E+02  0.92098753356E+02  0.10597385420E+03  0.50000000000E+02 0.  0.
<mgrwt>
<rscale>  0 0.52424016E+02</rscale>
<asrwt>0</asrwt>
<pdfrwt beam="1">  1       13 0.10000000E+01 0.52424016E+02</pdfrwt>
<pdfrwt beam="2">  1       22 0.71349883E+00 0.52424016E+02</pdfrwt>
<totfact> 0.67541948E-02</totfact>
</mgrwt>
</event>
<event>
 4    1  0.2486873E+000  0.5410898E+02  0.7957747E-01  0.1424360E+00
         13   -1    0    0    0    0  0.00000000000E+00  0.00000000000E+00  0.99999944181E+02  0.10000000000E+03  0.10566000000E+00 0. -1.
         22   -1    0    0    0    0 -0.00000000000E+00 -0.00000000000E+00 -0.21340350543E+02  0.21340350543E+02  0.00000000000E+00 0.  1.
         13    1    1    2    0    0 -0.19057837341E+01 -0.20594882016E+02 -0.53953624354E+01  0.21375272554E+02  0.10566000000E+00 0.  1.
        996    1    1    2    0    0  0.19057837341E+01  0.20594882016E+02  0.84054956074E+02  0.99965077990E+02  0.50000000000E+02 0.  0.
<mgrwt>
<rscale>  0 0.54108975E+02</rscale>
<asrwt>0</asrwt>
<pdfrwt beam="1">  1       13 0.10000000E+01 0.54108975E+02</pdfrwt>
<pdfrwt beam="2">  1       22 0.21340373E+00 0.54108975E+02</pdfrwt>
<totfact> 0.40234456E-01</totfact>
</mgrwt>
</event>
<event>
 4    1  0.2486873E+000  0.5868392E+02  0.7957747E-01  0.1403439E+00
         13   -1    0    0    0    0  0.00000000000E+00  0.00000000000E+00  0.99999944174E+02  0.99999999994E+02  0.10566000000E+00 0. -1.
         22   -1    0    0    0    0 -0.00000000000E+00 -0.00000000000E+00 -0.24736633081E+02  0.24736633081E+02  0.00000000000E+00 0.  1.
         13    1    1    2    0    0  0.13295269102E+02 -0.27695453348E+02  0.18864986596E+01  0.30779414515E+02  0.10566000000E+00 0.  1.
        996    1    1    2    0    0 -0.13295269102E+02  0.27695453348E+02  0.73376812434E+02  0.93957218560E+02  0.50000000000E+02 0.  0.
<mgrwt>
<rscale>  0 0.58683919E+02</rscale>
<asrwt>0</asrwt>
<pdfrwt beam="1">  1       13 0.10000000E+01 0.58683919E+02</pdfrwt>
<pdfrwt beam="2">  1       22 0.24736654E+00 0.58683919E+02</pdfrwt>
<totfact> 0.30399314E-01</totfact>
</mgrwt>
</event>
<event>
 4    1  0.2486873E+000  0.5397107E+02  0.7957747E-01  0.1425028E+00
         13   -1    0    0    0    0  0.00000000000E+00  0.00000000000E+00  0.99999944182E+02  0.10000000000E+03  0.10566000000E+00 0. -1.
         22   -1    0    0    0    0 -0.00000000000E+00 -0.00000000000E+00 -0.35079870371E+02  0.35079870371E+02  0.00000000000E+00 0.  1.
         13    1    1    2    0    0 -0.24096874652E+01 -0.20175966505E+02 -0.23762224153E+02  0.31265487024E+02  0.10566000000E+00 0.  1.
        996    1    1    2    0    0  0.24096874652E+01  0.20175966505E+02  0.88682297964E+02  0.10381438335E+03  0.50000000000E+02 0.  0.
<mgrwt>
<rscale>  0 0.53971068E+02</rscale>
<asrwt>0</asrwt>
<pdfrwt beam="1">  1       13 0.10000000E+01 0.53971068E+02</pdfrwt>
<pdfrwt beam="2">  1       22 0.35079889E+00 0.53971068E+02</pdfrwt>
<totfact> 0.15683348E-01</totfact>
</mgrwt>
</event>
<event>
 4    1  0.2486873E+000  0.5430091E+02  0.7957747E-01  0.1423434E+00
         13   -1    0    0    0    0  0.00000000000E+00  0.00000000000E+00  0.99999944177E+02  0.99999999997E+02  0.10566000000E+00 0. -1.
         22   -1    0    0    0    0 -0.00000000000E+00 -0.00000000000E+00 -0.14401049052E+02  0.14401049052E+02  0.00000000000E+00 0. -1.
         13    1    1    2    0    0 -0.91222979489E+01 -0.19114731729E+02  0.29608447882E+02  0.36404129421E+02  0.10566000000E+00 0.  1.
        996    1    1    2    0    0  0.91222979489E+01  0.19114731729E+02  0.55990447243E+02  0.77996919628E+02  0.50000000000E+02 0.  0.
<mgrwt>
<rscale>  0 0.54300914E+02</rscale>
<asrwt>0</asrwt>
<pdfrwt beam="1">  1       13 0.10000000E+01 0.54300914E+02</pdfrwt>
<pdfrwt beam="2">  1       22 0.14401073E+00 0.54300914E+02</pdfrwt>
<totfact> 0.80911450E-01</totfact>
</mgrwt>
</event>
<event>
 4    1  0.2486873E+000  0.5172556E+02  0.7957747E-01  0.1436251E+00
         13   -1    0    0    0    0  0.00000000000E+00  0.00000000000E+00  0.99999944178E+02  0.99999999998E+02  0.10566000000E+00 0.  1.
         22   -1    0    0    0    0 -0.00000000000E+00 -0.00000000000E+00 -0.12636045600E+02  0.12636045600E+02  0.00000000000E+00 0.  1.
         13    1    1    2    0    0 -0.36182544016E+01  0.12745253249E+02  0.28543891230E+01  0.13553300211E+02  0.10566000000E+00 0. -1.
        996    1    1    2    0    0  0.36182544016E+01 -0.12745253249E+02  0.84509509454E+02  0.99082745387E+02  0.50000000000E+02 0.  0.
<mgrwt>
<rscale>  0 0.51725557E+02</rscale>
<asrwt>0</asrwt>
<pdfrwt beam="1">  1       13 0.10000000E+01 0.51725557E+02</pdfrwt>
<pdfrwt beam="2">  1       22 0.12636070E+00 0.51725557E+02</pdfrwt>
<totfact> 0.99187213E-01</totfact>
</mgrwt>
</event>
<event>
 4    1  0.2486873E+000  0.5116147E+02  0.7957747E-01  0.1439176E+00
         13   -1    0    0    0    0  0.00000000000E+00  0.00000000000E+00  0.99999944174E+02  0.99999999995E+02  0.10566000000E+00 0. -1.
         22   -1    0    0    0    0 -0.00000000000E+00 -0.00000000000E+00 -0.96611473557E+01  0.96611473557E+01  0.00000000000E+00 0. -1.
         13    1    1    2    0    0  0.86156561419E+01  0.65777387142E+01  0.18971469437E+02  0.21850034187E+02  0.10566000000E+00 0.  1.
        996    1    1    2    0    0 -0.86156561419E+01 -0.65777387142E+01  0.71367327382E+02  0.87811113163E+02  0.50000000000E+02 0.  0.
<mgrwt>
<rscale>  0 0.51161472E+02</rscale>
<asrwt>0</asrwt>
<pdfrwt beam="1">  1       13 0.10000000E+01 0.51161472E+02</pdfrwt>
<pdfrwt beam="2">  1       22 0.96611726E-01 0.51161472E+02</pdfrwt>
<totfact> 0.14786057E+00</totfact>
</mgrwt>
</event>
<event>
 4    1  0.2486873E+000  0.5129318E+02  0.7957747E-01  0.1438489E+00
         13   -1    0    0    0    0  0.00000000000E+00  0.00000000000E+00  0.99999944180E+02  0.10000000000E+03  0.10566000000E+00 0. -1.
         22   -1    0    0    0    0 -0.00000000000E+00 -0.00000000000E+00 -0.61811153960E+02  0.61811153960E+02  0.00000000000E+00 0.  1.
         13    1    1    2    0    0 -0.71901121765E+01 -0.89046428553E+01 -0.54601078924E+02  0.55787806564E+02  0.10566000000E+00 0.  1.
        996    1    1    2    0    0  0.71901121765E+01  0.89046428553E+01  0.92789869144E+02  0.10602334740E+03  0.50000000000E+02 0.  0.
<mgrwt>
<rscale>  0 0.51293181E+02</rscale>
<asrwt>0</asrwt>
<pdfrwt beam="1">  1       13 0.10000000E+01 0.51293181E+02</pdfrwt>
<pdfrwt beam="2">  1       22 0.61811165E+00 0.51293181E+02</pdfrwt>
<totfact> 0.71800273E-02</totfact>
</mgrwt>
</event>
<event>
 4    1  0.2486873E+000  0.6862517E+02  0.7957747E-01  0.1364832E+00
         13   -1    0    0    0    0  0.00000000000E+00  0.00000000000E+00  0.99999944178E+02  0.99999999998E+02  0.10566000000E+00 0.  1.
         22   -1    0    0    0    0 -0.00000000000E+00 -0.00000000000E+00 -0.36920315405E+02  0.36920315405E+02  0.00000000000E+00 0. -1.
         13    1    1    2    0    0 -0.41276180627E+02 -0.22487556500E+02  0.54739645329E+01  0.47322180172E+02  0.10566000000E+00 0. -1.
        996    1    1    2    0    0  0.41276180627E+02  0.22487556500E+02  0.57605664240E+02  0.89598135232E+02  0.50000000000E+02 0.  0.
<mgrwt>
<rscale>  0 0.68625165E+02</rscale>
<asrwt>0</asrwt>
<pdfrwt beam="1">  1       13 0.10000000E+01 0.68625165E+02</pdfrwt>
<pdfrwt beam="2">  1       22 0.36920333E+00 0.68625165E+02</pdfrwt>
<totfact> 0.14504356E-01</totfact>
</mgrwt>
</event>
<event>
 4    1  0.2486873E+000  0.5251306E+02  0.7957747E-01  0.1432240E+00
         13   -1    0    0    0    0  0.00000000000E+00  0.00000000000E+00  0.99999944173E+02  0.99999999993E+02  0.10566000000E+00 0.  1.
         22   -1    0    0    0    0 -0.00000000000E+00 -0.00000000000E+00 -0.34295977457E+02  0.34295977457E+02  0.00000000000E+00 0. -1.
         13    1    1    2    0    0  0.11992515933E+02 -0.10667771643E+02 -0.24870051370E+02  0.29599871780E+02  0.10566000000E+00 0. -1.
        996    1    1    2    0    0 -0.11992515933E+02  0.10667771643E+02  0.90574018086E+02  0.10469610567E+03  0.50000000000E+02 0.  0.
<mgrwt>
<rscale>  0 0.52513063E+02</rscale>
<asrwt>0</asrwt>
<pdfrwt beam="1">  1       13 0.10000000E+01 0.52513063E+02</pdfrwt>
<pdfrwt beam="2">  1       22 0.34295996E+00 0.52513063E+02</pdfrwt>
<totfact> 0.16290133E-01</totfact>
</mgrwt>
</event>
<event>
 4    1  0.2486873E+000  0.5502100E+02  0.7957747E-01  0.1420000E+00
         13   -1    0    0    0    0  0.00000000000E+00  0.00000000000E+00  0.99999944182E+02  0.10000000000E+03  0.10566000000E+00 0. -1.
         22   -1    0    0    0    0 -0.00000000000E+00 -0.00000000000E+00 -0.23700192565E+02  0.23700192565E+02  0.00000000000E+00 0.  1.
         13    1    1    2    0    0 -0.22803688266E+02 -0.27021761567E+01 -0.68779275997E+01  0.23971378906E+02  0.10566000000E+00 0.  1.
        996    1    1    2    0    0  0.22803688266E+02  0.27021761567E+01  0.83177679217E+02  0.99728813662E+02  0.50000000000E+02 0.  0.
<mgrwt>
<rscale>  0 0.55020996E+02</rscale>
<asrwt>0</asrwt>
<pdfrwt beam="1">  1       13 0.10000000E+01 0.55020996E+02</pdfrwt>
<pdfrwt beam="2">  1       22 0.23700214E+00 0.55020996E+02</pdfrwt>
<totfact> 0.32891789E-01</totfact>
</mgrwt>
</event>
<event>
 4    1  0.2486873E+000  0.5162750E+02  0.7957747E-01  0.1436756E+00
         13   -1    0    0    0    0  0.00000000000E+00  0.00000000000E+00  0.99999944176E+02  0.99999999996E+02  0.10566000000E+00 0. -1.
         22   -1    0    0    0    0 -0.00000000000E+00 -0.00000000000E+00 -0.13701741226E+02  0.13701741226E+02  0.00000000000E+00 0. -1.
         13    1    1    2    0    0  0.12332214678E+02 -0.36489349905E+01  0.47253322152E+02  0.48972296902E+02  0.10566000000E+00 0.  1.
        996    1    1    2    0    0 -0.12332214678E+02  0.36489349905E+01  0.39044880798E+02  0.64729444320E+02  0.50000000000E+02 0.  0.
<mgrwt>
<rscale>  0 0.51627495E+02</rscale>
<asrwt>0</asrwt>
<pdfrwt beam="1">  1       13 0.10000000E+01 0.51627495E+02</pdfrwt>
<pdfrwt beam="2">  1       22 0.13701765E+00 0.51627495E+02</pdfrwt>
<totfact> 0.87240724E-01</totfact>
</mgrwt>
</event>
<event>
 4    1  0.2486873E+000  0.5463250E+02  0.7957747E-01  0.1421845E+00
         13   -1    0    0    0    0  0.00000000000E+00  0.00000000000E+00  0.99999944175E+02  0.99999999995E+02  0.10566000000E+00 0.  1.
         22   -1    0    0    0    0 -0.00000000000E+00 -0.00000000000E+00 -0.14688784726E+02  0.14688784726E+02  0.00000000000E+00 0.  1.
         13    1    1    2    0    0 -0.18249195452E+02 -0.12315713809E+02  0.24040668293E+02  0.32598693797E+02  0.10566000000E+00 0. -1.
        996    1    1    2    0    0  0.18249195452E+02  0.12315713809E+02  0.61270491157E+02  0.82090090924E+02  0.50000000000E+02 0.  0.
<mgrwt>
<rscale>  0 0.54632499E+02</rscale>
<asrwt>0</asrwt>
<pdfrwt beam="1">  1       13 0.10000000E+01 0.54632499E+02</pdfrwt>
<pdfrwt beam="2">  1       22 0.14688809E+00 0.54632499E+02</pdfrwt>
<totfact> 0.78368860E-01</totfact>
</mgrwt>
</event>
<event>
 4    1  0.2486873E+000  0.5114766E+02  0.7957747E-01  0.1439248E+00
         13   -1    0    0    0    0  0.00000000000E+00  0.00000000000E+00  0.99999944181E+02  0.10000000000E+03  0.10566000000E+00 0. -1.
         22   -1    0    0    0    0 -0.00000000000E+00 -0.00000000000E+00 -0.25841357685E+02  0.25841357685E+02  0.00000000000E+00 0.  1.
         13    1    1    2    0    0 -0.84836741562E+01  0.66415486813E+01 -0.17689220300E+02  0.20712377337E+02  0.10566000000E+00 0.  1.
        996    1    1    2    0    0  0.84836741562E+01 -0.66415486813E+01  0.91847806797E+02  0.10512898035E+03  0.50000000000E+02 0.  0.
<mgrwt>
<rscale>  0 0.51147658E+02</rscale>
<asrwt>0</asrwt>
<pdfrwt beam="1">  1       13 0.10000000E+01 0.51147658E+02</pdfrwt>
<pdfrwt beam="2">  1       22 0.25841378E+00 0.51147658E+02</pdfrwt>
<totfact> 0.27584081E-01</totfact>
</mgrwt>
</event>
<event>
 4    1  0.2486873E+000  0.5200764E+02  0.7957747E-01  0.1434804E+00
         13   -1    0    0    0    0  0.00000000000E+00  0.00000000000E+00  0.99999944178E+02  0.99999999998E+02  0.10566000000E+00 0.  1.
         22   -1    0    0    0    0 -0.00000000000E+00 -0.00000000000E+00 -0.11533840807E+02  0.11533840807E+02  0.00000000000E+00 0. -1.
         13    1    1    2    0    0 -0.88558121626E+01  0.11241399204E+02  0.10240737140E+02  0.17597679572E+02  0.10566000000E+00 0. -1.
        996    1    1    2    0    0  0.88558121626E+01 -0.11241399204E+02  0.78225366231E+02  0.93936161232E+02  0.50000000000E+02 0.  0.
<mgrwt>
<rscale>  0 0.52007639E+02</rscale>
<asrwt>0</asrwt>
<pdfrwt beam="1">  1       13 0.10000000E+01 0.52007639E+02</pdfrwt>
<pdfrwt beam="2">  1       22 0.11533866E+00 0.52007639E+02</pdfrwt>
<totfact> 0.11417046E+00</totfact>
</mgrwt>
</event>
<event>
 4    1  0.2486873E+000  0.6113202E+02  0.7957747E-01  0.1393142E+00
         13   -1    0    0    0    0  0.00000000000E+00  0.00000000000E+00  0.99999944183E+02  0.10000000000E+03  0.10566000000E+00 0. -1.
         22   -1    0    0    0    0 -0.00000000000E+00 -0.00000000000E+00 -0.35606601240E+02  0.35606601240E+02  0.00000000000E+00 0.  1.
         13    1    1    2    0    0 -0.39635635058E+01  0.34948730320E+02 -0.12540776035E+02  0.37341743589E+02  0.10566000000E+00 0.  1.
        996    1    1    2    0    0  0.39635635058E+01 -0.34948730320E+02  0.76934118979E+02  0.98264857654E+02  0.50000000000E+02 0.  0.
<mgrwt>
<rscale>  0 0.61132018E+02</rscale>
<asrwt>0</asrwt>
<pdfrwt beam="1">  1       13 0.10000000E+01 0.61132018E+02</pdfrwt>
<pdfrwt beam="2">  1       22 0.35606619E+00 0.61132018E+02</pdfrwt>
<totfact> 0.15379581E-01</totfact>
</mgrwt>
</event>
<event>
 4    1  0.2486873E+000  0.5192605E+02  0.7957747E-01  0.1435221E+00
         13   -1    0    0    0    0  0.00000000000E+00  0.00000000000E+00  0.99999944174E+02  0.99999999995E+02  0.10566000000E+00 0.  1.
         22   -1    0    0    0    0 -0.00000000000E+00 -0.00000000000E+00 -0.11093219955E+02  0.11093219955E+02  0.00000000000E+00 0. -1.
         13    1    1    2    0    0  0.79916227849E+01 -0.11508613412E+02  0.12921075939E+02  0.19059894670E+02  0.10566000000E+00 0. -1.
        996    1    1    2    0    0 -0.79916227849E+01  0.11508613412E+02  0.75985648280E+02  0.92033325279E+02  0.50000000000E+02 0.  0.
<mgrwt>
<rscale>  0 0.51926046E+02</rscale>
<asrwt>0</asrwt>
<pdfrwt beam="1">  1       13 0.10000000E+01 0.51926046E+02</pdfrwt>
<pdfrwt beam="2">  1       22 0.11093245E+00 0.51926046E+02</pdfrwt>
<totfact> 0.12102040E+00</totfact>
</mgrwt>
</event>
<event>
 4    1  0.2486873E+000  0.5133999E+02  0.7957747E-01  0.1438245E+00
         13   -1    0    0    0    0  0.00000000000E+00  0.00000000000E+00  0.99999944176E+02  0.99999999997E+02  0.10566000000E+00 0. -1.
         22   -1    0    0    0    0 -0.00000000000E+00 -0.00000000000E+00 -0.25884666474E+02  0.25884666474E+02  0.00000000000E+00 0.  1.
         13    1    1    2    0    0  0.10676945434E+02 -0.46688235981E+01 -0.17405952909E+02  0.20946919543E+02  0.10566000000E+00 0.  1.
        996    1    1    2    0    0 -0.10676945434E+02  0.46688235981E+01  0.91521230612E+02  0.10493774693E+03  0.50000000000E+02 0.  0.
<mgrwt>
<rscale>  0 0.51339995E+02</rscale>
<asrwt>0</asrwt>
<pdfrwt beam="1">  1       13 0.10000000E+01 0.51339995E+02</pdfrwt>
<pdfrwt beam="2">  1       22 0.25884687E+00 0.51339995E+02</pdfrwt>
<totfact> 0.27501618E-01</totfact>
</mgrwt>
</event>
<event>
 4    1  0.2486873E+000  0.5185176E+02  0.7957747E-01  0.1435602E+00
         13   -1    0    0    0    0  0.00000000000E+00  0.00000000000E+00  0.99999944177E+02  0.99999999997E+02  0.10566000000E+00 0.  1.
         22   -1    0    0    0    0 -0.00000000000E+00 -0.00000000000E+00 -0.12604669542E+02  0.12604669542E+02  0.00000000000E+00 0. -1.
         13    1    1    2    0    0 -0.13220021778E+02 -0.37197011581E+01  0.38269906441E+01  0.14257004382E+02  0.10566000000E+00 0. -1.
        996    1    1    2    0    0  0.13220021778E+02  0.37197011581E+01  0.83568283991E+02  0.98347665157E+02  0.50000000000E+02 0.  0.
<mgrwt>
<rscale>  0 0.51851761E+02</rscale>
<asrwt>0</asrwt>
<pdfrwt beam="1">  1       13 0.10000000E+01 0.51851761E+02</pdfrwt>
<pdfrwt beam="2">  1       22 0.12604694E+00 0.51851761E+02</pdfrwt>
<totfact> 0.99599970E-01</totfact>
</mgrwt>
</event>
<event>
 4    1  0.2486873E+000  0.6389332E+02  0.7957747E-01  0.1382183E+00
         13   -1    0    0    0    0  0.00000000000E+00  0.00000000000E+00  0.99999944169E+02  0.99999999989E+02  0.10566000000E+00 0. -1.
         22   -1    0    0    0    0 -0.00000000000E+00 -0.00000000000E+00 -0.44080792331E+02  0.44080792331E+02  0.00000000000E+00 0.  1.
         13    1    1    2    0    0  0.31749245203E+02  0.23965420985E+02 -0.20270788685E+02  0.44646074989E+02  0.10566000000E+00 0.  1.
        996    1    1    2    0    0 -0.31749245203E+02 -0.23965420985E+02  0.76189940523E+02  0.99434717332E+02  0.50000000000E+02 0.  0.
<mgrwt>
<rscale>  0 0.63893317E+02</rscale>
<asrwt>0</asrwt>
<pdfrwt beam="1">  1       13 0.10000000E+01 0.63893317E+02</pdfrwt>
<pdfrwt beam="2">  1       22 0.44080808E+00 0.63893317E+02</pdfrwt>
<totfact> 0.10197689E-01</totfact>
</mgrwt>
</event>
<event>
 4    1  0.2486873E+000  0.5114276E+02  0.7957747E-01  0.1439274E+00
         13   -1    0    0    0    0  0.00000000000E+00  0.00000000000E+00  0.99999944177E+02  0.99999999997E+02  0.10566000000E+00 0. -1.
         22   -1    0    0    0    0 -0.00000000000E+00 -0.00000000000E+00 -0.97799957317E+01  0.97799957317E+01  0.00000000000E+00 0. -1.
         13    1    1    2    0    0 -0.10247827054E+02 -0.32502066478E+01  0.10247244070E+02  0.14852574782E+02  0.10566000000E+00 0.  1.
        996    1    1    2    0    0  0.10247827054E+02  0.32502066478E+01  0.79972704375E+02  0.94927420947E+02  0.50000000000E+02 0.  0.
<mgrwt>
<rscale>  0 0.51142759E+02</rscale>
<asrwt>0</asrwt>
<pdfrwt beam="1">  1       13 0.10000000E+01 0.51142759E+02</pdfrwt>
<pdfrwt beam="2">  1       22 0.97800209E-01 0.51142759E+02</pdfrwt>
<totfact> 0.14527830E+00</totfact>
</mgrwt>
</event>
<event>
 4    1  0.2486873E+000  0.5540881E+02  0.7957747E-01  0.1418175E+00
         13   -1    0    0    0    0  0.00000000000E+00  0.00000000000E+00  0.99999944191E+02  0.10000000001E+03  0.10566000000E+00 0.  1.
         22   -1    0    0    0    0 -0.00000000000E+00 -0.00000000000E+00 -0.21492642974E+02  0.21492642974E+02  0.00000000000E+00 0. -1.
         13    1    1    2    0    0  0.85435242605E+01 -0.22296727485E+02 -0.17774293071E+01  0.23943815116E+02  0.10566000000E+00 0. -1.
        996    1    1    2    0    0 -0.85435242605E+01  0.22296727485E+02  0.80284730524E+02  0.97548827869E+02  0.50000000000E+02 0.  0.
<mgrwt>
<rscale>  0 0.55408807E+02</rscale>
<asrwt>0</asrwt>
<pdfrwt beam="1">  1       13 0.10000000E+01 0.55408807E+02</pdfrwt>
<pdfrwt beam="2">  1       22 0.21492665E+00 0.55408807E+02</pdfrwt>
<totfact> 0.39776197E-01</totfact>
</mgrwt>
</event>
<event>
 4    1  0.2486873E+000  0.5510515E+02  0.7957747E-01  0.1419602E+00
         13   -1    0    0    0    0  0.00000000000E+00  0.00000000000E+00  0.99999944183E+02  0.10000000000E+03  0.10566000000E+00 0. -1.
         22   -1    0    0    0    0 -0.00000000000E+00 -0.00000000000E+00 -0.16580570275E+02  0.16580570275E+02  0.00000000000E+00 0.  1.
         13    1    1    2    0    0 -0.22758125131E+02  0.43180224991E+01  0.11175163061E+02  0.25719117622E+02  0.10566000000E+00 0.  1.
        996    1    1    2    0    0  0.22758125131E+02 -0.43180224991E+01  0.72244210848E+02  0.90861452656E+02  0.50000000000E+02 0.  0.
<mgrwt>
<rscale>  0 0.55105150E+02</rscale>
<asrwt>0</asrwt>
<pdfrwt beam="1">  1       13 0.10000000E+01 0.55105150E+02</pdfrwt>
<pdfrwt beam="2">  1       22 0.16580594E+00 0.55105150E+02</pdfrwt>
<totfact> 0.63880209E-01</totfact>
</mgrwt>
</event>
<event>
 4    1  0.2486873E+000  0.5371765E+02  0.7957747E-01  0.1426262E+00
         13   -1    0    0    0    0  0.00000000000E+00  0.00000000000E+00  0.99999944188E+02  0.10000000001E+03  0.10566000000E+00 0.  1.
         22   -1    0    0    0    0 -0.00000000000E+00 -0.00000000000E+00 -0.21200797255E+02  0.21200797255E+02  0.00000000000E+00 0. -1.
         13    1    1    2    0    0 -0.32711325887E+01  0.19361974110E+02 -0.62504839497E+01  0.20607427386E+02  0.10566000000E+00 0. -1.
        996    1    1    2    0    0  0.32711325887E+01 -0.19361974110E+02  0.85049630883E+02  0.10059336988E+03  0.50000000000E+02 0.  0.
<mgrwt>
<rscale>  0 0.53717654E+02</rscale>
<asrwt>0</asrwt>
<pdfrwt beam="1">  1       13 0.10000000E+01 0.53717654E+02</pdfrwt>
<pdfrwt beam="2">  1       22 0.21200819E+00 0.53717654E+02</pdfrwt>
<totfact> 0.40713984E-01</totfact>
</mgrwt>
</event>
<event>
 4    1  0.2486873E+000  0.5227425E+02  0.7957747E-01  0.1433447E+00
         13   -1    0    0    0    0  0.00000000000E+00  0.00000000000E+00  0.99999944173E+02  0.99999999993E+02  0.10566000000E+00 0. -1.
         22   -1    0    0    0    0 -0.00000000000E+00 -0.00000000000E+00 -0.22135523796E+02  0.22135523796E+02  0.00000000000E+00 0. -1.
         13    1    1    2    0    0 -0.86913106862E+00 -0.15226367355E+02 -0.11159773060E+02  0.18898395446E+02  0.10566000000E+00 0.  1.
        996    1    1    2    0    0  0.86913106862E+00  0.15226367355E+02  0.89024193437E+02  0.10323712834E+03  0.50000000000E+02 0.  0.
<mgrwt>
<rscale>  0 0.52274254E+02</rscale>
<asrwt>0</asrwt>
<pdfrwt beam="1">  1       13 0.10000000E+01 0.52274254E+02</pdfrwt>
<pdfrwt beam="2">  1       22 0.22135546E+00 0.52274254E+02</pdfrwt>
<totfact> 0.37394124E-01</totfact>
</mgrwt>
</event>
<event>
 4    1  0.2486873E+000  0.5102587E+02  0.7957747E-01  0.1439886E+00
         13   -1    0    0    0    0  0.00000000000E+00  0.00000000000E+00  0.99999944180E+02  0.10000000000E+03  0.10566000000E+00 0. -1.
         22   -1    0    0    0    0 -0.00000000000E+00 -0.00000000000E+00 -0.33043584200E+02  0.33043584200E+02  0.00000000000E+00 0.  1.
         13    1    1    2    0    0  0.86225766326E+01  0.54121222302E+01 -0.25491217728E+02  0.27449102720E+02  0.10566000000E+00 0.  1.
        996    1    1    2    0    0 -0.86225766326E+01 -0.54121222302E+01  0.92447577709E+02  0.10559448148E+03  0.50000000000E+02 0.  0.
<mgrwt>
<rscale>  0 0.51025875E+02</rscale>
<asrwt>0</asrwt>
<pdfrwt beam="1">  1       13 0.10000000E+01 0.51025875E+02</pdfrwt>
<pdfrwt beam="2">  1       22 0.33043603E+00 0.51025875E+02</pdfrwt>
<totfact> 0.17358685E-01</totfact>
</mgrwt>
</event>
<event>
 4    1  0.2486873E+000  0.5127279E+02  0.7957747E-01  0.1438595E+00
         13   -1    0    0    0    0  0.00000000000E+00  0.00000000000E+00  0.99999944184E+02  0.10000000000E+03  0.10566000000E+00 0. -1.
         22   -1    0    0    0    0 -0.00000000000E+00 -0.00000000000E+00 -0.99024419272E+01  0.99024419272E+01  0.00000000000E+00 0. -1.
         13    1    1    2    0    0  0.97493118774E+01  0.58180861652E+01  0.20825527847E+02  0.23719464219E+02  0.10566000000E+00 0.  1.
        996    1    1    2    0    0 -0.97493118774E+01 -0.58180861652E+01  0.69271974410E+02  0.86182977712E+02  0.50000000000E+02 0.  0.
<mgrwt>
<rscale>  0 0.51272792E+02</rscale>
<asrwt>0</asrwt>
<pdfrwt beam="1">  1       13 0.10000000E+01 0.51272792E+02</pdfrwt>
<pdfrwt beam="2">  1       22 0.99024671E-01 0.51272792E+02</pdfrwt>
<totfact> 0.14274056E+00</totfact>
</mgrwt>
</event>
<event>
 4    1  0.2486873E+000  0.6168466E+02  0.7957747E-01  0.1390895E+00
         13   -1    0    0    0    0  0.00000000000E+00  0.00000000000E+00  0.99999944179E+02  0.99999999999E+02  0.10566000000E+00 0.  1.
         22   -1    0    0    0    0 -0.00000000000E+00 -0.00000000000E+00 -0.23933115754E+02  0.23933115754E+02  0.00000000000E+00 0. -1.
         13    1    1    2    0    0  0.35768348879E+02 -0.50618610698E+01  0.29665231534E+02  0.46744350942E+02  0.10566000000E+00 0. -1.
        996    1    1    2    0    0 -0.35768348879E+02  0.50618610698E+01  0.46401596891E+02  0.77188764811E+02  0.50000000000E+02 0.  0.
<mgrwt>
<rscale>  0 0.61684660E+02</rscale>
<asrwt>0</asrwt>
<pdfrwt beam="1">  1       13 0.10000000E+01 0.61684660E+02</pdfrwt>
<pdfrwt beam="2">  1       22 0.23933137E+00 0.61684660E+02</pdfrwt>
<totfact> 0.32576605E-01</totfact>
</mgrwt>
</event>
<event>
 4    1  0.2486873E+000  0.5104002E+02  0.7957747E-01  0.1439811E+00
         13   -1    0    0    0    0  0.00000000000E+00  0.00000000000E+00  0.99999944176E+02  0.99999999996E+02  0.10566000000E+00 0. -1.
         22   -1    0    0    0    0 -0.00000000000E+00 -0.00000000000E+00 -0.13515966773E+02  0.13515966773E+02  0.00000000000E+00 0.  1.
         13    1    1    2    0    0 -0.99710198608E+01  0.23795546641E+01 -0.28403638520E+01  0.10637779294E+02  0.10566000000E+00 0.  1.
        996    1    1    2    0    0  0.99710198608E+01 -0.23795546641E+01  0.89324341255E+02  0.10287818747E+03  0.50000000000E+02 0.  0.
<mgrwt>
<rscale>  0 0.51040019E+02</rscale>
<asrwt>0</asrwt>
<pdfrwt beam="1">  1       13 0.10000000E+01 0.51040019E+02</pdfrwt>
<pdfrwt beam="2">  1       22 0.13515991E+00 0.51040019E+02</pdfrwt>
<totfact> 0.89056749E-01</totfact>
</mgrwt>
</event>
<event>
 4    1  0.2486873E+000  0.5235357E+02  0.7957747E-01  0.1433045E+00
         13   -1    0    0    0    0  0.00000000000E+00  0.00000000000E+00  0.99999944180E+02  0.10000000000E+03  0.10566000000E+00 0.  1.
         22   -1    0    0    0    0 -0.00000000000E+00 -0.00000000000E+00 -0.12101896892E+02  0.12101896892E+02  0.00000000000E+00 0.  1.
         13    1    1    2    0    0 -0.71647011588E+01 -0.13768207183E+02  0.10801598432E+02  0.18909843057E+02  0.10566000000E+00 0. -1.
        996    1    1    2    0    0  0.71647011588E+01  0.13768207183E+02  0.77096448856E+02  0.93192053834E+02  0.50000000000E+02 0.  0.
<mgrwt>
<rscale>  0 0.52353572E+02</rscale>
<asrwt>0</asrwt>
<pdfrwt beam="1">  1       13 0.10000000E+01 0.52353572E+02</pdfrwt>
<pdfrwt beam="2">  1       22 0.12101921E+00 0.52353572E+02</pdfrwt>
<totfact> 0.10619195E+00</totfact>
</mgrwt>
</event>
<event>
 4    1  0.2486873E+000  0.5184472E+02  0.7957747E-01  0.1435638E+00
         13   -1    0    0    0    0  0.00000000000E+00  0.00000000000E+00  0.99999944182E+02  0.10000000000E+03  0.10566000000E+00 0. -1.
         22   -1    0    0    0    0 -0.00000000000E+00 -0.00000000000E+00 -0.13091704055E+02  0.13091704055E+02  0.00000000000E+00 0. -1.
         13    1    1    2    0    0  0.78131175568E+01 -0.11261874847E+02  0.23528846983E+01  0.13907618828E+02  0.10566000000E+00 0.  1.
        996    1    1    2    0    0 -0.78131175568E+01  0.11261874847E+02  0.84555355429E+02  0.99184085229E+02  0.50000000000E+02 0.  0.
<mgrwt>
<rscale>  0 0.51844717E+02</rscale>
<asrwt>0</asrwt>
<pdfrwt beam="1">  1       13 0.10000000E+01 0.51844717E+02</pdfrwt>
<pdfrwt beam="2">  1       22 0.13091728E+00 0.51844717E+02</pdfrwt>
<totfact> 0.93848100E-01</totfact>
</mgrwt>
</event>
<event>
 4    1  0.2486873E+000  0.5250040E+02  0.7957747E-01  0.1432303E+00
         13   -1    0    0    0    0  0.00000000000E+00  0.00000000000E+00  0.99999944182E+02  0.10000000000E+03  0.10566000000E+00 0.  1.
         22   -1    0    0    0    0 -0.00000000000E+00 -0.00000000000E+00 -0.92255033290E+02  0.92255033290E+02  0.00000000000E+00 0. -1.
         13    1    1    2    0    0  0.40541162142E+01  0.15487300447E+02 -0.84561106860E+02  0.86063257496E+02  0.10566000000E+00 0. -1.
        996    1    1    2    0    0 -0.40541162142E+01 -0.15487300447E+02  0.92306017752E+02  0.10619177580E+03  0.50000000000E+02 0.  0.
<mgrwt>
<rscale>  0 0.52500403E+02</rscale>
<asrwt>0</asrwt>
<pdfrwt beam="1">  1       13 0.10000000E+01 0.52500403E+02</pdfrwt>
<pdfrwt beam="2">  1       22 0.92255035E+00 0.52500403E+02</pdfrwt>
<totfact> 0.73585629E-03</totfact>
</mgrwt>
</event>
<event>
 4    1  0.2486873E+000  0.5104308E+02  0.7957747E-01  0.1439795E+00
         13   -1    0    0    0    0  0.00000000000E+00  0.00000000000E+00  0.99999944177E+02  0.99999999997E+02  0.10566000000E+00 0.  1.
         22   -1    0    0    0    0 -0.00000000000E+00 -0.00000000000E+00 -0.94115147240E+01  0.94115147240E+01  0.00000000000E+00 0.  1.
         13    1    1    2    0    0  0.94534606470E+01 -0.40034907843E+01  0.13622657231E+02  0.17058247587E+02  0.10566000000E+00 0. -1.
        996    1    1    2    0    0 -0.94534606470E+01  0.40034907843E+01  0.76965772222E+02  0.92353267134E+02  0.50000000000E+02 0.  0.
<mgrwt>
<rscale>  0 0.51043078E+02</rscale>
<asrwt>0</asrwt>
<pdfrwt beam="1">  1       13 0.10000000E+01 0.51043078E+02</pdfrwt>
<pdfrwt beam="2">  1       22 0.94115400E-01 0.51043078E+02</pdfrwt>
<totfact> 0.15345585E+00</totfact>
</mgrwt>
</event>
<event>
 4    1  0.2486873E+000  0.5553541E+02  0.7957747E-01  0.1417584E+00
         13   -1    0    0    0    0  0.00000000000E+00  0.00000000000E+00  0.99999944179E+02  0.99999999999E+02  0.10566000000E+00 0.  1.
         22   -1    0    0    0    0 -0.00000000000E+00 -0.00000000000E+00 -0.25196853257E+02  0.25196853257E+02  0.00000000000E+00 0. -1.
         13    1    1    2    0    0 -0.23667107620E+02 -0.49040857933E+01 -0.80305490956E+01  0.25469254472E+02  0.10566000000E+00 0. -1.
        996    1    1    2    0    0  0.23667107620E+02  0.49040857933E+01  0.82833640018E+02  0.99727598784E+02  0.50000000000E+02 0.  0.
<mgrwt>
<rscale>  0 0.55535412E+02</rscale>
<asrwt>0</asrwt>
<pdfrwt beam="1">  1       13 0.10000000E+01 0.55535412E+02</pdfrwt>
<pdfrwt beam="2">  1       22 0.25196874E+00 0.55535412E+02</pdfrwt>
<totfact> 0.29182922E-01</totfact>
</mgrwt>
</event>
<event>
 4    1  0.2486873E+000  0.5108037E+02  0.7957747E-01  0.1439600E+00
         13   -1    0    0    0    0  0.00000000000E+00  0.00000000000E+00  0.99999944178E+02  0.99999999998E+02  0.10566000000E+00 0.  1.
         22   -1    0    0    0    0 -0.00000000000E+00 -0.00000000000E+00 -0.11089614293E+02  0.11089614293E+02  0.00000000000E+00 0. -1.
         13    1    1    2    0    0 -0.79377344876E+01 -0.67968266131E+01  0.25557962985E+01  0.10758612344E+02  0.10566000000E+00 0. -1.
        996    1    1    2    0    0  0.79377344876E+01  0.67968266131E+01  0.86354533587E+02  0.10033100195E+03  0.50000000000E+02 0.  0.
<mgrwt>
<rscale>  0 0.51080373E+02</rscale>
<asrwt>0</asrwt>
<pdfrwt beam="1">  1       13 0.10000000E+01 0.51080373E+02</pdfrwt>
<pdfrwt beam="2">  1       22 0.11089639E+00 0.51080373E+02</pdfrwt>
<totfact> 0.12084107E+00</totfact>
</mgrwt>
</event>
<event>
 4    1  0.2486873E+000  0.7023004E+02  0.7957747E-01  0.1359313E+00
         13   -1    0    0    0    0  0.00000000000E+00  0.00000000000E+00  0.99999944178E+02  0.99999999998E+02  0.10566000000E+00 0. -1.
         22   -1    0    0    0    0 -0.00000000000E+00 -0.00000000000E+00 -0.48407188776E+02  0.48407188776E+02  0.00000000000E+00 0.  1.
         13    1    1    2    0    0  0.29228842891E+02 -0.39723207784E+02 -0.15077525012E+02  0.51571323601E+02  0.10566000000E+00 0.  1.
        996    1    1    2    0    0 -0.29228842891E+02  0.39723207784E+02  0.66670280414E+02  0.96835865174E+02  0.50000000000E+02 0.  0.
<mgrwt>
<rscale>  0 0.70230040E+02</rscale>
<asrwt>0</asrwt>
<pdfrwt beam="1">  1       13 0.10000000E+01 0.70230040E+02</pdfrwt>
<pdfrwt beam="2">  1       22 0.48407203E+00 0.70230040E+02</pdfrwt>
<totfact> 0.81047538E-02</totfact>
</mgrwt>
</event>
<event>
 4    1  0.2486873E+000  0.5224139E+02  0.7957747E-01  0.1433614E+00
         13   -1    0    0    0    0  0.00000000000E+00  0.00000000000E+00  0.99999944172E+02  0.99999999992E+02  0.10566000000E+00 0.  1.
         22   -1    0    0    0    0 -0.00000000000E+00 -0.00000000000E+00 -0.27358450101E+02  0.27358450101E+02  0.00000000000E+00 0. -1.
         13    1    1    2    0    0  0.34611061349E+01 -0.14737144857E+02 -0.17520696009E+02  0.23154883867E+02  0.10566000000E+00 0. -1.
        996    1    1    2    0    0 -0.34611061349E+01  0.14737144857E+02  0.90162190080E+02  0.10420356623E+03  0.50000000000E+02 0.  0.
<mgrwt>
<rscale>  0 0.52241389E+02</rscale>
<asrwt>0</asrwt>
<pdfrwt beam="1">  1       13 0.10000000E+01 0.52241389E+02</pdfrwt>
<pdfrwt beam="2">  1       22 0.27358470E+00 0.52241389E+02</pdfrwt>
<totfact> 0.24706947E-01</totfact>
</mgrwt>
</event>
<event>
 4    1  0.2486873E+000  0.5184968E+02  0.7957747E-01  0.1435613E+00
         13   -1    0    0    0    0  0.00000000000E+00  0.00000000000E+00  0.99999944176E+02  0.99999999997E+02  0.10566000000E+00 0.  1.
         22   -1    0    0    0    0 -0.00000000000E+00 -0.00000000000E+00 -0.11176199041E+02  0.11176199041E+02  0.00000000000E+00 0. -1.
         13    1    1    2    0    0 -0.12414537539E+02 -0.58539690217E+01  0.10662012015E+02  0.17380430370E+02  0.10566000000E+00 0. -1.
        996    1    1    2    0    0  0.12414537539E+02  0.58539690217E+01  0.78161733120E+02  0.93795768667E+02  0.50000000000E+02 0.  0.
<mgrwt>
<rscale>  0 0.51849684E+02</rscale>
<asrwt>0</asrwt>
<pdfrwt beam="1">  1       13 0.10000000E+01 0.51849684E+02</pdfrwt>
<pdfrwt beam="2">  1       22 0.11176224E+00 0.51849684E+02</pdfrwt>
<totfact> 0.11965998E+00</totfact>
</mgrwt>
</event>
<event>
 4    1  0.2486873E+000  0.5146113E+02  0.7957747E-01  0.1437616E+00
         13   -1    0    0    0    0  0.00000000000E+00  0.00000000000E+00  0.99999944175E+02  0.99999999996E+02  0.10566000000E+00 0.  1.
         22   -1    0    0    0    0 -0.00000000000E+00 -0.00000000000E+00 -0.45167368765E+02  0.45167368765E+02  0.00000000000E+00 0. -1.
         13    1    1    2    0    0  0.10879170029E+02 -0.54672999333E+01 -0.37519227618E+02  0.39445548725E+02  0.10566000000E+00 0. -1.
        996    1    1    2    0    0 -0.10879170029E+02  0.54672999333E+01  0.92351803029E+02  0.10572182004E+03  0.50000000000E+02 0.  0.
<mgrwt>
<rscale>  0 0.51461128E+02</rscale>
<asrwt>0</asrwt>
<pdfrwt beam="1">  1       13 0.10000000E+01 0.51461128E+02</pdfrwt>
<pdfrwt beam="2">  1       22 0.45167384E+00 0.51461128E+02</pdfrwt>
<totfact> 0.95750608E-02</totfact>
</mgrwt>
</event>
<event>
 4    1  0.2486873E+000  0.5121105E+02  0.7957747E-01  0.1438917E+00
         13   -1    0    0    0    0  0.00000000000E+00  0.00000000000E+00  0.99999944175E+02  0.99999999995E+02  0.10566000000E+00 0. -1.
         22   -1    0    0    0    0 -0.00000000000E+00 -0.00000000000E+00 -0.10546425965E+02  0.10546425965E+02  0.00000000000E+00 0. -1.
         13    1    1    2    0    0 -0.10684442420E+02  0.29007338964E+01  0.58947333241E+01  0.12543150002E+02  0.10566000000E+00 0.  1.
        996    1    1    2    0    0  0.10684442420E+02 -0.29007338964E+01  0.83558784885E+02  0.98003275958E+02  0.50000000000E+02 0.  0.
<mgrwt>
<rscale>  0 0.51211049E+02</rscale>
<asrwt>0</asrwt>
<pdfrwt beam="1">  1       13 0.10000000E+01 0.51211049E+02</pdfrwt>
<pdfrwt beam="2">  1       22 0.10546451E+00 0.51211049E+02</pdfrwt>
<totfact> 0.13020457E+00</totfact>
</mgrwt>
</event>
<event>
 4    1  0.2486873E+000  0.5686931E+02  0.7957747E-01  0.1411460E+00
         13   -1    0    0    0    0  0.00000000000E+00  0.00000000000E+00  0.99999944172E+02  0.99999999992E+02  0.10566000000E+00 0.  1.
         22   -1    0    0    0    0 -0.00000000000E+00 -0.00000000000E+00 -0.34952080008E+02  0.34952080008E+02  0.00000000000E+00 0. -1.
         13    1    1    2    0    0  0.24304183426E+02  0.11976016044E+02 -0.19269996113E+02  0.33248491793E+02  0.10566000000E+00 0. -1.
        996    1    1    2    0    0 -0.24304183426E+02 -0.11976016044E+02  0.84317860277E+02  0.10170358821E+03  0.50000000000E+02 0.  0.
<mgrwt>
<rscale>  0 0.56869309E+02</rscale>
<asrwt>0</asrwt>
<pdfrwt beam="1">  1       13 0.10000000E+01 0.56869309E+02</pdfrwt>
<pdfrwt beam="2">  1       22 0.34952098E+00 0.56869309E+02</pdfrwt>
<totfact> 0.15828245E-01</totfact>
</mgrwt>
</event>
<event>
 4    1  0.2486873E+000  0.5406604E+02  0.7957747E-01  0.1424568E+00
         13   -1    0    0    0    0  0.00000000000E+00  0.00000000000E+00  0.99999944176E+02  0.99999999996E+02  0.10566000000E+00 0. -1.
         22   -1    0    0    0    0 -0.00000000000E+00 -0.00000000000E+00 -0.22231134784E+02  0.22231134784E+02  0.00000000000E+00 0.  1.
         13    1    1    2    0    0  0.17516965430E+02  0.10783929784E+02 -0.69649561266E+01  0.21717711604E+02  0.10566000000E+00 0.  1.
        996    1    1    2    0    0 -0.17516965430E+02 -0.10783929784E+02  0.84733765519E+02  0.10051342318E+03  0.50000000000E+02 0.  0.
<mgrwt>
<rscale>  0 0.54066045E+02</rscale>
<asrwt>0</asrwt>
<pdfrwt beam="1">  1       13 0.10000000E+01 0.54066045E+02</pdfrwt>
<pdfrwt beam="2">  1       22 0.22231156E+00 0.54066045E+02</pdfrwt>
<totfact> 0.37195022E-01</totfact>
</mgrwt>
</event>
<event>
 4    1  0.2486873E+000  0.5481071E+02  0.7957747E-01  0.1420996E+00
         13   -1    0    0    0    0  0.00000000000E+00  0.00000000000E+00  0.99999944185E+02  0.10000000000E+03  0.10566000000E+00 0.  1.
         22   -1    0    0    0    0 -0.00000000000E+00 -0.00000000000E+00 -0.17251021969E+02  0.17251021969E+02  0.00000000000E+00 0.  1.
         13    1    1    2    0    0  0.61030269971E+01 -0.21609413379E+02  0.65574093638E+01  0.23392829387E+02  0.10566000000E+00 0. -1.
        996    1    1    2    0    0 -0.61030269971E+01  0.21609413379E+02  0.76191512852E+02  0.93858192587E+02  0.50000000000E+02 0.  0.
<mgrwt>
<rscale>  0 0.54810708E+02</rscale>
<asrwt>0</asrwt>
<pdfrwt beam="1">  1       13 0.10000000E+01 0.54810708E+02</pdfrwt>
<pdfrwt beam="2">  1       22 0.17251045E+00 0.54810708E+02</pdfrwt>
<totfact> 0.59564687E-01</totfact>
</mgrwt>
</event>
<event>
 4    1  0.2486873E+000  0.5134970E+02  0.7957747E-01  0.1438195E+00
         13   -1    0    0    0    0  0.00000000000E+00  0.00000000000E+00  0.99999944183E+02  0.10000000000E+03  0.10566000000E+00 0.  1.
         22   -1    0    0    0    0 -0.00000000000E+00 -0.00000000000E+00 -0.10948827259E+02  0.10948827259E+02  0.00000000000E+00 0.  1.
         13    1    1    2    0    0  0.11344879067E+02  0.28434147583E+01  0.56071513537E+01  0.12970836475E+02  0.10566000000E+00 0. -1.
        996    1    1    2    0    0 -0.11344879067E+02 -0.28434147583E+01  0.83443965570E+02  0.97977990787E+02  0.50000000000E+02 0.  0.
<mgrwt>
<rscale>  0 0.51349696E+02</rscale>
<asrwt>0</asrwt>
<pdfrwt beam="1">  1       13 0.10000000E+01 0.51349696E+02</pdfrwt>
<pdfrwt beam="2">  1       22 0.10948852E+00 0.51349696E+02</pdfrwt>
<totfact> 0.12323838E+00</totfact>
</mgrwt>
</event>
<event>
 4    1  0.2486873E+000  0.5349202E+02  0.7957747E-01  0.1427368E+00
         13   -1    0    0    0    0  0.00000000000E+00  0.00000000000E+00  0.99999944181E+02  0.10000000000E+03  0.10566000000E+00 0.  1.
         22   -1    0    0    0    0 -0.00000000000E+00 -0.00000000000E+00 -0.13285071799E+02  0.13285071799E+02  0.00000000000E+00 0.  1.
         13    1    1    2    0    0  0.16210548669E+02  0.99304682452E+01  0.17773604669E+02  0.26025146968E+02  0.10566000000E+00 0. -1.
        996    1    1    2    0    0 -0.16210548669E+02 -0.99304682452E+01  0.68941267714E+02  0.87259924832E+02  0.50000000000E+02 0.  0.
<mgrwt>
<rscale>  0 0.53492019E+02</rscale>
<asrwt>0</asrwt>
<pdfrwt beam="1">  1       13 0.10000000E+01 0.53492019E+02</pdfrwt>
<pdfrwt beam="2">  1       22 0.13285096E+00 0.53492019E+02</pdfrwt>
<totfact> 0.92014537E-01</totfact>
</mgrwt>
</event>
<event>
 4    1  0.2486873E+000  0.5168323E+02  0.7957747E-01  0.1436469E+00
         13   -1    0    0    0    0  0.00000000000E+00  0.00000000000E+00  0.99999944182E+02  0.10000000000E+03  0.10566000000E+00 0.  1.
         22   -1    0    0    0    0 -0.00000000000E+00 -0.00000000000E+00 -0.11866964558E+02  0.11866964558E+02  0.00000000000E+00 0.  1.
         13    1    1    2    0    0  0.11891577893E+02 -0.54540085669E+01  0.50570062226E+01  0.14026414731E+02  0.10566000000E+00 0. -1.
        996    1    1    2    0    0 -0.11891577893E+02  0.54540085669E+01  0.83075973402E+02  0.97840549829E+02  0.50000000000E+02 0.  0.
<mgrwt>
<rscale>  0 0.51683226E+02</rscale>
<asrwt>0</asrwt>
<pdfrwt beam="1">  1       13 0.10000000E+01 0.51683226E+02</pdfrwt>
<pdfrwt beam="2">  1       22 0.11866989E+00 0.51683226E+02</pdfrwt>
<totfact> 0.10926390E+00</totfact>
</mgrwt>
</event>
<event>
 4    1  0.2486873E+000  0.5209861E+02  0.7957747E-01  0.1434340E+00
         13   -1    0    0    0    0  0.00000000000E+00  0.00000000000E+00  0.99999944176E+02  0.99999999996E+02  0.10566000000E+00 0. -1.
         22   -1    0    0    0    0 -0.00000000000E+00 -0.00000000000E+00 -0.17573782837E+02  0.17573782837E+02  0.00000000000E+00 0.  1.
         13    1    1    2    0    0 -0.69921406551E+01 -0.12859810736E+02 -0.52796296024E+01  0.15561182985E+02  0.10566000000E+00 0.  1.
        996    1    1    2    0    0  0.69921406551E+01  0.12859810736E+02  0.87705790941E+02  0.10201259985E+03  0.50000000000E+02 0.  0.
<mgrwt>
<rscale>  0 0.52098606E+02</rscale>
<asrwt>0</asrwt>
<pdfrwt beam="1">  1       13 0.10000000E+01 0.52098606E+02</pdfrwt>
<pdfrwt beam="2">  1       22 0.17573806E+00 0.52098606E+02</pdfrwt>
<totfact> 0.57351363E-01</totfact>
</mgrwt>
</event>
<event>
 4    1  0.2486873E+000  0.5380341E+02  0.7957747E-01  0.1425844E+00
         13   -1    0    0    0    0  0.00000000000E+00  0.00000000000E+00  0.99999944177E+02  0.99999999997E+02  0.10566000000E+00 0. -1.
         22   -1    0    0    0    0 -0.00000000000E+00 -0.00000000000E+00 -0.13771019743E+02  0.13771019743E+02  0.00000000000E+00 0. -1.
         13    1    1    2    0    0  0.18314362671E+02  0.77065836648E+01  0.17425758212E+02  0.26428687541E+02  0.10566000000E+00 0.  1.
        996    1    1    2    0    0 -0.18314362671E+02 -0.77065836648E+01  0.68803166221E+02  0.87342332199E+02  0.50000000000E+02 0.  0.
<mgrwt>
<rscale>  0 0.53803414E+02</rscale>
<asrwt>0</asrwt>
<pdfrwt beam="1">  1       13 0.10000000E+01 0.53803414E+02</pdfrwt>
<pdfrwt beam="2">  1       22 0.13771044E+00 0.53803414E+02</pdfrwt>
<totfact> 0.86929434E-01</totfact>
</mgrwt>
</event>
<event>
 4    1  0.2486873E+000  0.5964484E+02  0.7957747E-01  0.1399328E+00
         13   -1    0    0    0    0  0.00000000000E+00  0.00000000000E+00  0.99999944176E+02  0.99999999996E+02  0.10566000000E+00 0.  1.
         22   -1    0    0    0    0 -0.00000000000E+00 -0.00000000000E+00 -0.27742545516E+02  0.27742545516E+02  0.00000000000E+00 0. -1.
         13    1    1    2    0    0  0.17594152738E+02 -0.27348723457E+02 -0.19002671122E+01  0.32574976047E+02  0.10566000000E+00 0. -1.
        996    1    1    2    0    0 -0.17594152738E+02  0.27348723457E+02  0.74157665771E+02  0.95167569466E+02  0.50000000000E+02 0.  0.
<mgrwt>
<rscale>  0 0.59644840E+02</rscale>
<asrwt>0</asrwt>
<pdfrwt beam="1">  1       13 0.10000000E+01 0.59644840E+02</pdfrwt>
<pdfrwt beam="2">  1       22 0.27742566E+00 0.59644840E+02</pdfrwt>
<totfact> 0.24283930E-01</totfact>
</mgrwt>
</event>
<event>
 4    1  0.2486873E+000  0.5120236E+02  0.7957747E-01  0.1438962E+00
         13   -1    0    0    0    0  0.00000000000E+00  0.00000000000E+00  0.99999944180E+02  0.10000000000E+03  0.10566000000E+00 0.  1.
         22   -1    0    0    0    0 -0.00000000000E+00 -0.00000000000E+00 -0.18926324184E+02  0.18926324184E+02  0.00000000000E+00 0. -1.
         13    1    1    2    0    0  0.10920468959E+02 -0.15573640261E+01 -0.97118108917E+01  0.14697362342E+02  0.10566000000E+00 0. -1.
        996    1    1    2    0    0 -0.10920468959E+02  0.15573640261E+01  0.90785430888E+02  0.10422896184E+03  0.50000000000E+02 0.  0.
<mgrwt>
<rscale>  0 0.51202363E+02</rscale>
<asrwt>0</asrwt>
<pdfrwt beam="1">  1       13 0.10000000E+01 0.51202363E+02</pdfrwt>
<pdfrwt beam="2">  1       22 0.18926347E+00 0.51202363E+02</pdfrwt>
<totfact> 0.50094316E-01</totfact>
</mgrwt>
</event>
<event>
 4    1  0.2486873E+000  0.5896374E+02  0.7957747E-01  0.1402233E+00
         13   -1    0    0    0    0  0.00000000000E+00  0.00000000000E+00  0.99999944173E+02  0.99999999993E+02  0.10566000000E+00 0.  1.
         22   -1    0    0    0    0 -0.00000000000E+00 -0.00000000000E+00 -0.21513231500E+02  0.21513231500E+02  0.00000000000E+00 0. -1.
         13    1    1    2    0    0 -0.31089712849E+02  0.31863624608E+01  0.41339555986E+02  0.51823674165E+02  0.10566000000E+00 0. -1.
        996    1    1    2    0    0  0.31089712849E+02 -0.31863624608E+01  0.37147156686E+02  0.69689557328E+02  0.50000000000E+02 0.  0.
<mgrwt>
<rscale>  0 0.58963744E+02</rscale>
<asrwt>0</asrwt>
<pdfrwt beam="1">  1       13 0.10000000E+01 0.58963744E+02</pdfrwt>
<pdfrwt beam="2">  1       22 0.21513253E+00 0.58963744E+02</pdfrwt>
<totfact> 0.39924058E-01</totfact>
</mgrwt>
</event>
<event>
 4    1  0.2486873E+000  0.6940461E+02  0.7957747E-01  0.1362129E+00
         13   -1    0    0    0    0  0.00000000000E+00  0.00000000000E+00  0.99999944181E+02  0.10000000000E+03  0.10566000000E+00 0. -1.
         22   -1    0    0    0    0 -0.00000000000E+00 -0.00000000000E+00 -0.34888725623E+02  0.34888725623E+02  0.00000000000E+00 0.  1.
         13    1    1    2    0    0  0.42612242897E+02  0.22387432982E+02  0.20082238027E+02  0.52156570521E+02  0.10566000000E+00 0.  1.
        996    1    1    2    0    0 -0.42612242897E+02 -0.22387432982E+02  0.45028980532E+02  0.82732155103E+02  0.50000000000E+02 0.  0.
<mgrwt>
<rscale>  0 0.69404614E+02</rscale>
<asrwt>0</asrwt>
<pdfrwt beam="1">  1       13 0.10000000E+01 0.69404614E+02</pdfrwt>
<pdfrwt beam="2">  1       22 0.34888744E+00 0.69404614E+02</pdfrwt>
<totfact> 0.16049746E-01</totfact>
</mgrwt>
</event>
<event>
 4    1  0.2486873E+000  0.5378588E+02  0.7957747E-01  0.1425929E+00
         13   -1    0    0    0    0  0.00000000000E+00  0.00000000000E+00  0.99999944179E+02  0.10000000000E+03  0.10566000000E+00 0.  1.
         22   -1    0    0    0    0 -0.00000000000E+00 -0.00000000000E+00 -0.15232838256E+02  0.15232838256E+02  0.00000000000E+00 0. -1.
         13    1    1    2    0    0 -0.45569470462E+01 -0.19291317646E+02  0.77279280810E+01  0.21275637226E+02  0.10566000000E+00 0. -1.
        996    1    1    2    0    0  0.45569470462E+01  0.19291317646E+02  0.77039177842E+02  0.93957201030E+02  0.50000000000E+02 0.  0.
<mgrwt>
<rscale>  0 0.53785878E+02</rscale>
<asrwt>0</asrwt>
<pdfrwt beam="1">  1       13 0.10000000E+01 0.53785878E+02</pdfrwt>
<pdfrwt beam="2">  1       22 0.15232862E+00 0.53785878E+02</pdfrwt>
<totfact> 0.73641876E-01</totfact>
</mgrwt>
</event>
<event>
 4    1  0.2486873E+000  0.5224093E+02  0.7957747E-01  0.1433616E+00
         13   -1    0    0    0    0  0.00000000000E+00  0.00000000000E+00  0.99999944180E+02  0.10000000000E+03  0.10566000000E+00 0. -1.
         22   -1    0    0    0    0 -0.00000000000E+00 -0.00000000000E+00 -0.21909211640E+02  0.21909211640E+02  0.00000000000E+00 0.  1.
         13    1    1    2    0    0  0.46374095224E+01 -0.14408661036E+02 -0.10944736547E+02  0.18679226484E+02  0.10566000000E+00 0.  1.
        996    1    1    2    0    0 -0.46374095224E+01  0.14408661036E+02  0.89035469087E+02  0.10322998516E+03  0.50000000000E+02 0.  0.
<mgrwt>
<rscale>  0 0.52240933E+02</rscale>
<asrwt>0</asrwt>
<pdfrwt beam="1">  1       13 0.10000000E+01 0.52240933E+02</pdfrwt>
<pdfrwt beam="2">  1       22 0.21909233E+00 0.52240933E+02</pdfrwt>
<totfact> 0.38138420E-01</totfact>
</mgrwt>
</event>
<event>
 4    1  0.2486873E+000  0.5153751E+02  0.7957747E-01  0.1437221E+00
         13   -1    0    0    0    0  0.00000000000E+00  0.00000000000E+00  0.99999944175E+02  0.99999999995E+02  0.10566000000E+00 0.  1.
         22   -1    0    0    0    0 -0.00000000000E+00 -0.00000000000E+00 -0.11138721619E+02  0.11138721619E+02  0.00000000000E+00 0.  1.
         13    1    1    2    0    0  0.31657336773E+01  0.12086909602E+02  0.67720497207E+01  0.14212215693E+02  0.10566000000E+00 0. -1.
        996    1    1    2    0    0 -0.31657336773E+01 -0.12086909602E+02  0.82089172835E+02  0.96926505922E+02  0.50000000000E+02 0.  0.
<mgrwt>
<rscale>  0 0.51537513E+02</rscale>
<asrwt>0</asrwt>
<pdfrwt beam="1">  1       13 0.10000000E+01 0.51537513E+02</pdfrwt>
<pdfrwt beam="2">  1       22 0.11138746E+00 0.51537513E+02</pdfrwt>
<totfact> 0.12017525E+00</totfact>
</mgrwt>
</event>
<event>
 4    1  0.2486873E+000  0.5123854E+02  0.7957747E-01  0.1438773E+00
         13   -1    0    0    0    0  0.00000000000E+00  0.00000000000E+00  0.99999944170E+02  0.99999999990E+02  0.10566000000E+00 0.  1.
         22   -1    0    0    0    0 -0.00000000000E+00 -0.00000000000E+00 -0.13500905361E+02  0.13500905361E+02  0.00000000000E+00 0. -1.
         13    1    1    2    0    0 -0.90388974968E+01 -0.66095420304E+01 -0.18684471739E+01  0.11352971976E+02  0.10566000000E+00 0. -1.
        996    1    1    2    0    0  0.90388974968E+01  0.66095420304E+01  0.88367485983E+02  0.10214793338E+03  0.50000000000E+02 0.  0.
<mgrwt>
<rscale>  0 0.51238537E+02</rscale>
<asrwt>0</asrwt>
<pdfrwt beam="1">  1       13 0.10000000E+01 0.51238537E+02</pdfrwt>
<pdfrwt beam="2">  1       22 0.13500930E+00 0.51238537E+02</pdfrwt>
<totfact> 0.89253936E-01</totfact>
</mgrwt>
</event>
<event>
 4    1  0.2486873E+000  0.5696574E+02  0.7957747E-01  0.1411025E+00
         13   -1    0    0    0    0  0.00000000000E+00  0.00000000000E+00  0.99999944176E+02  0.99999999996E+02  0.10566000000E+00 0. -1.
         22   -1    0    0    0    0 -0.00000000000E+00 -0.00000000000E+00 -0.17936665905E+02  0.17936665905E+02  0.00000000000E+00 0. -1.
         13    1    1    2    0    0 -0.21837476231E+02  0.16377434180E+02  0.21105112981E+02  0.34504096517E+02  0.10566000000E+00 0.  1.
        996    1    1    2    0    0  0.21837476231E+02 -0.16377434180E+02  0.60958165290E+02  0.83432569384E+02  0.50000000000E+02 0.  0.
<mgrwt>
<rscale>  0 0.56965742E+02</rscale>
<asrwt>0</asrwt>
<pdfrwt beam="1">  1       13 0.10000000E+01 0.56965742E+02</pdfrwt>
<pdfrwt beam="2">  1       22 0.17936689E+00 0.56965742E+02</pdfrwt>
<totfact> 0.55784704E-01</totfact>
</mgrwt>
</event>
<event>
 4    1  0.2486873E+000  0.5492249E+02  0.7957747E-01  0.1420466E+00
         13   -1    0    0    0    0  0.00000000000E+00  0.00000000000E+00  0.99999944169E+02  0.99999999989E+02  0.10566000000E+00 0. -1.
         22   -1    0    0    0    0 -0.00000000000E+00 -0.00000000000E+00 -0.17242582475E+02  0.17242582475E+02  0.00000000000E+00 0.  1.
         13    1    1    2    0    0  0.20467267276E+02 -0.98777844923E+01  0.72136761785E+01  0.23843824028E+02  0.10566000000E+00 0.  1.
        996    1    1    2    0    0 -0.20467267276E+02  0.98777844923E+01  0.75543685515E+02  0.93398758436E+02  0.50000000000E+02 0.  0.
<mgrwt>
<rscale>  0 0.54922488E+02</rscale>
<asrwt>0</asrwt>
<pdfrwt beam="1">  1       13 0.10000000E+01 0.54922488E+02</pdfrwt>
<pdfrwt beam="2">  1       22 0.17242606E+00 0.54922488E+02</pdfrwt>
<totfact> 0.59628250E-01</totfact>
</mgrwt>
</event>
<event>
 4    1  0.2486873E+000  0.5171042E+02  0.7957747E-01  0.1436328E+00
         13   -1    0    0    0    0  0.00000000000E+00  0.00000000000E+00  0.99999944179E+02  0.99999999999E+02  0.10566000000E+00 0.  1.
         22   -1    0    0    0    0 -0.00000000000E+00 -0.00000000000E+00 -0.17979156506E+02  0.17979156506E+02  0.00000000000E+00 0. -1.
         13    1    1    2    0    0 -0.12971288482E+02 -0.23902522056E+01 -0.70725207039E+01  0.14966607620E+02  0.10566000000E+00 0. -1.
        996    1    1    2    0    0  0.12971288482E+02  0.23902522056E+01  0.89093308376E+02  0.10301254889E+03  0.50000000000E+02 0.  0.
<mgrwt>
<rscale>  0 0.51710421E+02</rscale>
<asrwt>0</asrwt>
<pdfrwt beam="1">  1       13 0.10000000E+01 0.51710421E+02</pdfrwt>
<pdfrwt beam="2">  1       22 0.17979179E+00 0.51710421E+02</pdfrwt>
<totfact> 0.55024393E-01</totfact>
</mgrwt>
</event>
<event>
 4    1  0.2486873E+000  0.5198763E+02  0.7957747E-01  0.1434906E+00
         13   -1    0    0    0    0  0.00000000000E+00  0.00000000000E+00  0.99999944176E+02  0.99999999996E+02  0.10566000000E+00 0.  1.
         22   -1    0    0    0    0 -0.00000000000E+00 -0.00000000000E+00 -0.13168214156E+02  0.13168214156E+02  0.00000000000E+00 0.  1.
         13    1    1    2    0    0  0.12076284014E+02 -0.75416754136E+01  0.30400198473E+01  0.14559065504E+02  0.10566000000E+00 0. -1.
        996    1    1    2    0    0 -0.12076284014E+02  0.75416754136E+01  0.83791710172E+02  0.98609148649E+02  0.50000000000E+02 0.  0.
<mgrwt>
<rscale>  0 0.51987628E+02</rscale>
<asrwt>0</asrwt>
<pdfrwt beam="1">  1       13 0.10000000E+01 0.51987628E+02</pdfrwt>
<pdfrwt beam="2">  1       22 0.13168238E+00 0.51987628E+02</pdfrwt>
<totfact> 0.93016132E-01</totfact>
</mgrwt>
</event>
<event>
 4    1  0.2486873E+000  0.5815569E+02  0.7957747E-01  0.1405739E+00
         13   -1    0    0    0    0  0.00000000000E+00  0.00000000000E+00  0.99999944179E+02  0.99999999999E+02  0.10566000000E+00 0. -1.
         22   -1    0    0    0    0 -0.00000000000E+00 -0.00000000000E+00 -0.20873384438E+02  0.20873384438E+02  0.00000000000E+00 0. -1.
         13    1    1    2    0    0  0.12170889878E+01 -0.29674948104E+02  0.11932188107E+02  0.32007376144E+02  0.10566000000E+00 0.  1.
        996    1    1    2    0    0 -0.12170889878E+01  0.29674948104E+02  0.67194371634E+02  0.88866008292E+02  0.50000000000E+02 0.  0.
<mgrwt>
<rscale>  0 0.58155686E+02</rscale>
<asrwt>0</asrwt>
<pdfrwt beam="1">  1       13 0.10000000E+01 0.58155686E+02</pdfrwt>
<pdfrwt beam="2">  1       22 0.20873407E+00 0.58155686E+02</pdfrwt>
<totfact> 0.42238461E-01</totfact>
</mgrwt>
</event>
<event>
 4    1  0.2486873E+000  0.5942288E+02  0.7957747E-01  0.1400270E+00
         13   -1    0    0    0    0  0.00000000000E+00  0.00000000000E+00  0.99999944185E+02  0.10000000001E+03  0.10566000000E+00 0.  1.
         22   -1    0    0    0    0 -0.00000000000E+00 -0.00000000000E+00 -0.33646393917E+02  0.33646393917E+02  0.00000000000E+00 0. -1.
         13    1    1    2    0    0 -0.76068565844E+01 -0.31196382440E+02 -0.12887137692E+02  0.34600115988E+02  0.10566000000E+00 0. -1.
        996    1    1    2    0    0  0.76068565844E+01  0.31196382440E+02  0.79240687959E+02  0.99046277935E+02  0.50000000000E+02 0.  0.
<mgrwt>
<rscale>  0 0.59422879E+02</rscale>
<asrwt>0</asrwt>
<pdfrwt beam="1">  1       13 0.10000000E+01 0.59422879E+02</pdfrwt>
<pdfrwt beam="2">  1       22 0.33646412E+00 0.59422879E+02</pdfrwt>
<totfact> 0.16964984E-01</totfact>
</mgrwt>
</event>
<event>
 4    1  0.2486873E+000  0.5566122E+02  0.7957747E-01  0.1416998E+00
         13   -1    0    0    0    0  0.00000000000E+00  0.00000000000E+00  0.99999944188E+02  0.10000000001E+03  0.10566000000E+00 0.  1.
         22   -1    0    0    0    0 -0.00000000000E+00 -0.00000000000E+00 -0.22491373767E+02  0.22491373767E+02  0.00000000000E+00 0.  1.
         13    1    1    2    0    0  0.69121454964E+01 -0.23460464506E+02 -0.29722856627E+01  0.24637710858E+02  0.10566000000E+00 0. -1.
        996    1    1    2    0    0 -0.69121454964E+01  0.23460464506E+02  0.80480856084E+02  0.97853662917E+02  0.50000000000E+02 0.  0.
<mgrwt>
<rscale>  0 0.55661218E+02</rscale>
<asrwt>0</asrwt>
<pdfrwt beam="1">  1       13 0.10000000E+01 0.55661218E+02</pdfrwt>
<pdfrwt beam="2">  1       22 0.22491395E+00 0.55661218E+02</pdfrwt>
<totfact> 0.36460010E-01</totfact>
</mgrwt>
</event>
<event>
 4    1  0.2486873E+000  0.5666478E+02  0.7957747E-01  0.1412386E+00
         13   -1    0    0    0    0  0.00000000000E+00  0.00000000000E+00  0.99999944189E+02  0.10000000001E+03  0.10566000000E+00 0. -1.
         22   -1    0    0    0    0 -0.00000000000E+00 -0.00000000000E+00 -0.32088788434E+02  0.32088788434E+02  0.00000000000E+00 0.  1.
         13    1    1    2    0    0 -0.87129222038E+01  0.25198855276E+02 -0.15807248264E+02  0.30996412410E+02  0.10566000000E+00 0.  1.
        996    1    1    2    0    0  0.87129222038E+01 -0.25198855276E+02  0.83718404019E+02  0.10109237603E+03  0.50000000000E+02 0.  0.
<mgrwt>
<rscale>  0 0.56664780E+02</rscale>
<asrwt>0</asrwt>
<pdfrwt beam="1">  1       13 0.10000000E+01 0.56664780E+02</pdfrwt>
<pdfrwt beam="2">  1       22 0.32088807E+00 0.56664780E+02</pdfrwt>
<totfact> 0.18405406E-01</totfact>
</mgrwt>
</event>
<event>
 4    1  0.2486873E+000  0.5108915E+02  0.7957747E-01  0.1439554E+00
         13   -1    0    0    0    0  0.00000000000E+00  0.00000000000E+00  0.99999944180E+02  0.10000000000E+03  0.10566000000E+00 0.  1.
         22   -1    0    0    0    0 -0.00000000000E+00 -0.00000000000E+00 -0.13688067783E+02  0.13688067783E+02  0.00000000000E+00 0. -1.
         13    1    1    2    0    0 -0.10492866561E+02  0.32435378849E-01 -0.28967403926E+01  0.10885934487E+02  0.10566000000E+00 0. -1.
        996    1    1    2    0    0  0.10492866561E+02 -0.32435378849E-01  0.89208616790E+02  0.10280213330E+03  0.50000000000E+02 0.  0.
<mgrwt>
<rscale>  0 0.51089151E+02</rscale>
<asrwt>0</asrwt>
<pdfrwt beam="1">  1       13 0.10000000E+01 0.51089151E+02</pdfrwt>
<pdfrwt beam="2">  1       22 0.13688092E+00 0.51089151E+02</pdfrwt>
<totfact> 0.87279758E-01</totfact>
</mgrwt>
</event>
<event>
 4    1  0.2486873E+000  0.5246041E+02  0.7957747E-01  0.1432505E+00
         13   -1    0    0    0    0  0.00000000000E+00  0.00000000000E+00  0.99999944176E+02  0.99999999996E+02  0.10566000000E+00 0.  1.
         22   -1    0    0    0    0 -0.00000000000E+00 -0.00000000000E+00 -0.38961798451E+02  0.38961798451E+02  0.00000000000E+00 0. -1.
         13    1    1    2    0    0  0.46407191272E+01  0.15184160592E+02 -0.29970013500E+02  0.33916189057E+02  0.10566000000E+00 0. -1.
        996    1    1    2    0    0 -0.46407191272E+01 -0.15184160592E+02  0.91008159224E+02  0.10504560939E+03  0.50000000000E+02 0.  0.
<mgrwt>
<rscale>  0 0.52460414E+02</rscale>
<asrwt>0</asrwt>
<pdfrwt beam="1">  1       13 0.10000000E+01 0.52460414E+02</pdfrwt>
<pdfrwt beam="2">  1       22 0.38961816E+00 0.52460414E+02</pdfrwt>
<totfact> 0.12995370E-01</totfact>
</mgrwt>
</event>
<event>
 4    1  0.2486873E+000  0.5163586E+02  0.7957747E-01  0.1436713E+00
         13   -1    0    0    0    0  0.00000000000E+00  0.00000000000E+00  0.99999944179E+02  0.99999999999E+02  0.10566000000E+00 0.  1.
         22   -1    0    0    0    0 -0.00000000000E+00 -0.00000000000E+00 -0.10982409806E+02  0.10982409806E+02  0.00000000000E+00 0.  1.
         13    1    1    2    0    0  0.82523349593E+01  0.99076345790E+01  0.89043865643E+01  0.15670402654E+02  0.10566000000E+00 0. -1.
        996    1    1    2    0    0 -0.82523349593E+01 -0.99076345790E+01  0.80113147809E+02  0.95312007150E+02  0.50000000000E+02 0.  0.
<mgrwt>
<rscale>  0 0.51635862E+02</rscale>
<asrwt>0</asrwt>
<pdfrwt beam="1">  1       13 0.10000000E+01 0.51635862E+02</pdfrwt>
<pdfrwt beam="2">  1       22 0.10982435E+00 0.51635862E+02</pdfrwt>
<totfact> 0.12276082E+00</totfact>
</mgrwt>
</event>
<event>
 4    1  0.2486873E+000  0.5542918E+02  0.7957747E-01  0.1418080E+00
         13   -1    0    0    0    0  0.00000000000E+00  0.00000000000E+00  0.99999944177E+02  0.99999999997E+02  0.10566000000E+00 0.  1.
         22   -1    0    0    0    0 -0.00000000000E+00 -0.00000000000E+00 -0.24598073644E+02  0.24598073644E+02  0.00000000000E+00 0. -1.
         13    1    1    2    0    0 -0.22211978773E+02  0.88894105614E+01 -0.73224309612E+01  0.25020447245E+02  0.10566000000E+00 0. -1.
        996    1    1    2    0    0  0.22211978773E+02 -0.88894105614E+01  0.82724301494E+02  0.99577626397E+02  0.50000000000E+02 0.  0.
<mgrwt>
<rscale>  0 0.55429177E+02</rscale>
<asrwt>0</asrwt>
<pdfrwt beam="1">  1       13 0.10000000E+01 0.55429177E+02</pdfrwt>
<pdfrwt beam="2">  1       22 0.24598095E+00 0.55429177E+02</pdfrwt>
<totfact> 0.30594442E-01</totfact>
</mgrwt>
</event>
<event>
 4    1  0.2486873E+000  0.5120382E+02  0.7957747E-01  0.1438955E+00
         13   -1    0    0    0    0  0.00000000000E+00  0.00000000000E+00  0.99999944183E+02  0.10000000000E+03  0.10566000000E+00 0.  1.
         22   -1    0    0    0    0 -0.00000000000E+00 -0.00000000000E+00 -0.13461363069E+02  0.13461363069E+02  0.00000000000E+00 0. -1.
         13    1    1    2    0    0  0.88276460809E+01  0.66260301257E+01 -0.19662301963E+01  0.11211995174E+02  0.10566000000E+00 0. -1.
        996    1    1    2    0    0 -0.88276460809E+01 -0.66260301257E+01  0.88504811310E+02  0.10224936790E+03  0.50000000000E+02 0.  0.
<mgrwt>
<rscale>  0 0.51203824E+02</rscale>
<asrwt>0</asrwt>
<pdfrwt beam="1">  1       13 0.10000000E+01 0.51203824E+02</pdfrwt>
<pdfrwt beam="2">  1       22 0.13461387E+00 0.51203824E+02</pdfrwt>
<totfact> 0.89666012E-01</totfact>
</mgrwt>
</event>
<event>
 4    1  0.2486873E+000  0.5198929E+02  0.7957747E-01  0.1434898E+00
         13   -1    0    0    0    0  0.00000000000E+00  0.00000000000E+00  0.99999944179E+02  0.99999999999E+02  0.10566000000E+00 0. -1.
         22   -1    0    0    0    0 -0.00000000000E+00 -0.00000000000E+00 -0.13491279095E+02  0.13491279095E+02  0.00000000000E+00 0. -1.
         13    1    1    2    0    0 -0.34008632110E+01  0.13831859609E+02  0.21592680700E+01  0.14406936297E+02  0.10566000000E+00 0.  1.
        996    1    1    2    0    0  0.34008632110E+01 -0.13831859609E+02  0.84349397014E+02  0.99084342797E+02  0.50000000000E+02 0.  0.
<mgrwt>
<rscale>  0 0.51989289E+02</rscale>
<asrwt>0</asrwt>
<pdfrwt beam="1">  1       13 0.10000000E+01 0.51989289E+02</pdfrwt>
<pdfrwt beam="2">  1       22 0.13491303E+00 0.51989289E+02</pdfrwt>
<totfact> 0.89500014E-01</totfact>
</mgrwt>
</event>
<event>
 4    1  0.2486873E+000  0.5131766E+02  0.7957747E-01  0.1438361E+00
         13   -1    0    0    0    0  0.00000000000E+00  0.00000000000E+00  0.99999944181E+02  0.10000000000E+03  0.10566000000E+00 0.  1.
         22   -1    0    0    0    0 -0.00000000000E+00 -0.00000000000E+00 -0.10553561286E+02  0.10553561286E+02  0.00000000000E+00 0. -1.
         13    1    1    2    0    0 -0.38258993335E+01  0.10902507981E+02  0.72125892717E+01  0.13621115740E+02  0.10566000000E+00 0. -1.
        996    1    1    2    0    0  0.38258993335E+01 -0.10902507981E+02  0.82233793623E+02  0.96932445547E+02  0.50000000000E+02 0.  0.
<mgrwt>
<rscale>  0 0.51317660E+02</rscale>
<asrwt>0</asrwt>
<pdfrwt beam="1">  1       13 0.10000000E+01 0.51317660E+02</pdfrwt>
<pdfrwt beam="2">  1       22 0.10553586E+00 0.51317660E+02</pdfrwt>
<totfact> 0.13010829E+00</totfact>
</mgrwt>
</event>
<event>
 4    1  0.2486873E+000  0.5586356E+02  0.7957747E-01  0.1416059E+00
         13   -1    0    0    0    0  0.00000000000E+00  0.00000000000E+00  0.99999944168E+02  0.99999999989E+02  0.10566000000E+00 0. -1.
         22   -1    0    0    0    0 -0.00000000000E+00 -0.00000000000E+00 -0.19414722478E+02  0.19414722478E+02  0.00000000000E+00 0.  1.
         13    1    1    2    0    0 -0.23498769659E+02 -0.82792145801E+01  0.49761454139E+01  0.25406903723E+02  0.10566000000E+00 0.  1.
        996    1    1    2    0    0  0.23498769659E+02  0.82792145801E+01  0.75609076277E+02  0.94007818744E+02  0.50000000000E+02 0.  0.
<mgrwt>
<rscale>  0 0.55863562E+02</rscale>
<asrwt>0</asrwt>
<pdfrwt beam="1">  1       13 0.10000000E+01 0.55863562E+02</pdfrwt>
<pdfrwt beam="2">  1       22 0.19414745E+00 0.55863562E+02</pdfrwt>
<totfact> 0.48200209E-01</totfact>
</mgrwt>
</event>
<event>
 4    1  0.2486873E+000  0.5403931E+02  0.7957747E-01  0.1424697E+00
         13   -1    0    0    0    0  0.00000000000E+00  0.00000000000E+00  0.99999944187E+02  0.10000000001E+03  0.10566000000E+00 0.  1.
         22   -1    0    0    0    0 -0.00000000000E+00 -0.00000000000E+00 -0.67325820698E+02  0.67325820698E+02  0.00000000000E+00 0. -1.
         13    1    1    2    0    0 -0.90939250943E+00  0.20479736131E+02 -0.58140732707E+02  0.61649027166E+02  0.10566000000E+00 0. -1.
        996    1    1    2    0    0  0.90939250943E+00 -0.20479736131E+02  0.90814856197E+02  0.10567679354E+03  0.50000000000E+02 0.  0.
<mgrwt>
<rscale>  0 0.54039306E+02</rscale>
<asrwt>0</asrwt>
<pdfrwt beam="1">  1       13 0.10000000E+01 0.54039306E+02</pdfrwt>
<pdfrwt beam="2">  1       22 0.67325830E+00 0.54039306E+02</pdfrwt>
<totfact> 0.85522335E-02</totfact>
</mgrwt>
</event>
<event>
 4    1  0.2486873E+000  0.5213193E+02  0.7957747E-01  0.1434170E+00
         13   -1    0    0    0    0  0.00000000000E+00  0.00000000000E+00  0.99999944184E+02  0.10000000000E+03  0.10566000000E+00 0.  1.
         22   -1    0    0    0    0 -0.00000000000E+00 -0.00000000000E+00 -0.11269778214E+02  0.11269778214E+02  0.00000000000E+00 0.  1.
         13    1    1    2    0    0  0.57746456978E+01 -0.13579100553E+02  0.15754513273E+02  0.21585975939E+02  0.10566000000E+00 0. -1.
        996    1    1    2    0    0 -0.57746456978E+01  0.13579100553E+02  0.72975652697E+02  0.89683802280E+02  0.50000000000E+02 0.  0.
<mgrwt>
<rscale>  0 0.52131934E+02</rscale>
<asrwt>0</asrwt>
<pdfrwt beam="1">  1       13 0.10000000E+01 0.52131934E+02</pdfrwt>
<pdfrwt beam="2">  1       22 0.11269803E+00 0.52131934E+02</pdfrwt>
<totfact> 0.11825218E+00</totfact>
</mgrwt>
</event>
<event>
 4    1  0.2486873E+000  0.5110417E+02  0.7957747E-01  0.1439475E+00
         13   -1    0    0    0    0  0.00000000000E+00  0.00000000000E+00  0.99999944173E+02  0.99999999993E+02  0.10566000000E+00 0.  1.
         22   -1    0    0    0    0 -0.00000000000E+00 -0.00000000000E+00 -0.95155401596E+01  0.95155401596E+01  0.00000000000E+00 0.  1.
         13    1    1    2    0    0 -0.95716943424E+01  0.44742177888E+01  0.16680843598E+02  0.19745826511E+02  0.10566000000E+00 0. -1.
        996    1    1    2    0    0  0.95716943424E+01 -0.44742177888E+01  0.73803560415E+02  0.89769713641E+02  0.50000000000E+02 0.  0.
<mgrwt>
<rscale>  0 0.51104168E+02</rscale>
<asrwt>0</asrwt>
<pdfrwt beam="1">  1       13 0.10000000E+01 0.51104168E+02</pdfrwt>
<pdfrwt beam="2">  1       22 0.95155654E-01 0.51104168E+02</pdfrwt>
<totfact> 0.15109006E+00</totfact>
</mgrwt>
</event>
<event>
 4    1  0.2486873E+000  0.5283039E+02  0.7957747E-01  0.1430647E+00
         13   -1    0    0    0    0  0.00000000000E+00  0.00000000000E+00  0.99999944191E+02  0.10000000001E+03  0.10566000000E+00 0.  1.
         22   -1    0    0    0    0 -0.00000000000E+00 -0.00000000000E+00 -0.19281811710E+02  0.19281811710E+02  0.00000000000E+00 0. -1.
         13    1    1    2    0    0 -0.50026894555E+01 -0.16310210059E+02 -0.57058601517E+01  0.17989381814E+02  0.10566000000E+00 0. -1.
        996    1    1    2    0    0  0.50026894555E+01  0.16310210059E+02  0.86423992632E+02  0.10129242991E+03  0.50000000000E+02 0.  0.
<mgrwt>
<rscale>  0 0.52830388E+02</rscale>
<asrwt>0</asrwt>
<pdfrwt beam="1">  1       13 0.10000000E+01 0.52830388E+02</pdfrwt>
<pdfrwt beam="2">  1       22 0.19281834E+00 0.52830388E+02</pdfrwt>
<totfact> 0.48558002E-01</totfact>
</mgrwt>
</event>
<event>
 4    1  0.2486873E+000  0.5162949E+02  0.7957747E-01  0.1436746E+00
         13   -1    0    0    0    0  0.00000000000E+00  0.00000000000E+00  0.99999944181E+02  0.10000000000E+03  0.10566000000E+00 0. -1.
         22   -1    0    0    0    0 -0.00000000000E+00 -0.00000000000E+00 -0.25819074888E+02  0.25819074888E+02  0.00000000000E+00 0.  1.
         13    1    1    2    0    0  0.12484397350E+02  0.31214759525E+01 -0.16828314483E+02  0.21185068367E+02  0.10566000000E+00 0.  1.
        996    1    1    2    0    0 -0.12484397350E+02 -0.31214759525E+01  0.91009183777E+02  0.10463400652E+03  0.50000000000E+02 0.  0.
<mgrwt>
<rscale>  0 0.51629486E+02</rscale>
<asrwt>0</asrwt>
<pdfrwt beam="1">  1       13 0.10000000E+01 0.51629486E+02</pdfrwt>
<pdfrwt beam="2">  1       22 0.25819096E+00 0.51629486E+02</pdfrwt>
<totfact> 0.27651552E-01</totfact>
</mgrwt>
</event>
<event>
 4    1  0.2486873E+000  0.5112141E+02  0.7957747E-01  0.1439385E+00
         13   -1    0    0    0    0  0.00000000000E+00  0.00000000000E+00  0.99999944182E+02  0.10000000000E+03  0.10566000000E+00 0.  1.
         22   -1    0    0    0    0 -0.00000000000E+00 -0.00000000000E+00 -0.12448569803E+02  0.12448569803E+02  0.00000000000E+00 0. -1.
         13    1    1    2    0    0 -0.48862244067E+01 -0.94616548245E+01 -0.46894270287E+00  0.10659698507E+02  0.10566000000E+00 0. -1.
        996    1    1    2    0    0  0.48862244067E+01  0.94616548245E+01  0.88020317082E+02  0.10178887130E+03  0.50000000000E+02 0.  0.
<mgrwt>
<rscale>  0 0.51121406E+02</rscale>
<asrwt>0</asrwt>
<pdfrwt beam="1">  1       13 0.10000000E+01 0.51121406E+02</pdfrwt>
<pdfrwt beam="2">  1       22 0.12448594E+00 0.51121406E+02</pdfrwt>
<totfact> 0.10138340E+00</totfact>
</mgrwt>
</event>
<event>
 4    1  0.2486873E+000  0.5100360E+02  0.7957747E-01  0.1440002E+00
         13   -1    0    0    0    0  0.00000000000E+00  0.00000000000E+00  0.99999944177E+02  0.99999999997E+02  0.10566000000E+00 0. -1.
         22   -1    0    0    0    0 -0.00000000000E+00 -0.00000000000E+00 -0.32369460570E+02  0.32369460570E+02  0.00000000000E+00 0.  1.
         13    1    1    2    0    0 -0.46231357333E+01  0.89439375054E+01 -0.24819260505E+02  0.26783843230E+02  0.10566000000E+00 0.  1.
        996    1    1    2    0    0  0.46231357333E+01 -0.89439375054E+01  0.92449744112E+02  0.10558561734E+03  0.50000000000E+02 0.  0.
<mgrwt>
<rscale>  0 0.51003602E+02</rscale>
<asrwt>0</asrwt>
<pdfrwt beam="1">  1       13 0.10000000E+01 0.51003602E+02</pdfrwt>
<pdfrwt beam="2">  1       22 0.32369479E+00 0.51003602E+02</pdfrwt>
<totfact> 0.18003197E-01</totfact>
</mgrwt>
</event>
<event>
 4    1  0.2486873E+000  0.7526550E+02  0.7957747E-01  0.1343051E+00
         13   -1    0    0    0    0  0.00000000000E+00  0.00000000000E+00  0.99999944160E+02  0.99999999981E+02  0.10566000000E+00 0. -1.
         22   -1    0    0    0    0 -0.00000000000E+00 -0.00000000000E+00 -0.68732494025E+02  0.68732494025E+02  0.00000000000E+00 0.  1.
         13    1    1    2    0    0  0.28798085097E+02 -0.48327693462E+02 -0.36823367975E+02  0.67237394757E+02  0.10566000000E+00 0.  1.
        996    1    1    2    0    0 -0.28798085097E+02  0.48327693462E+02  0.68090818111E+02  0.10149509925E+03  0.50000000000E+02 0.  0.
<mgrwt>
<rscale>  0 0.75265501E+02</rscale>
<asrwt>0</asrwt>
<pdfrwt beam="1">  1       13 0.10000000E+01 0.75265501E+02</pdfrwt>
<pdfrwt beam="2">  1       22 0.68732503E+00 0.75265501E+02</pdfrwt>
<totfact> 0.80604589E-02</totfact>
</mgrwt>
</event>
<event>
 4    1  0.2486873E+000  0.5206778E+02  0.7957747E-01  0.1434497E+00
         13   -1    0    0    0    0  0.00000000000E+00  0.00000000000E+00  0.99999944184E+02  0.10000000000E+03  0.10566000000E+00 0. -1.
         22   -1    0    0    0    0 -0.00000000000E+00 -0.00000000000E+00 -0.28818290180E+02  0.28818290180E+02  0.00000000000E+00 0.  1.
         13    1    1    2    0    0  0.11105538359E+02  0.93659250793E+01 -0.19460765409E+02  0.24285511919E+02  0.10566000000E+00 0.  1.
        996    1    1    2    0    0 -0.11105538359E+02 -0.93659250793E+01  0.90642419413E+02  0.10453277826E+03  0.50000000000E+02 0.  0.
<mgrwt>
<rscale>  0 0.52067778E+02</rscale>
<asrwt>0</asrwt>
<pdfrwt beam="1">  1       13 0.10000000E+01 0.52067778E+02</pdfrwt>
<pdfrwt beam="2">  1       22 0.28818310E+00 0.52067778E+02</pdfrwt>
<totfact> 0.22340180E-01</totfact>
</mgrwt>
</event>
<event>
 4    1  0.2486873E+000  0.5242956E+02  0.7957747E-01  0.1432661E+00
         13   -1    0    0    0    0  0.00000000000E+00  0.00000000000E+00  0.99999944177E+02  0.99999999997E+02  0.10566000000E+00 0.  1.
         22   -1    0    0    0    0 -0.00000000000E+00 -0.00000000000E+00 -0.29160054328E+02  0.29160054328E+02  0.00000000000E+00 0. -1.
         13    1    1    2    0    0  0.14813817212E+02 -0.54230196351E+01 -0.19272057828E+02  0.24905455212E+02  0.10566000000E+00 0. -1.
        996    1    1    2    0    0 -0.14813817212E+02  0.54230196351E+01  0.90111947676E+02  0.10425459911E+03  0.50000000000E+02 0.  0.
<mgrwt>
<rscale>  0 0.52429556E+02</rscale>
<asrwt>0</asrwt>
<pdfrwt beam="1">  1       13 0.10000000E+01 0.52429556E+02</pdfrwt>
<pdfrwt beam="2">  1       22 0.29160074E+00 0.52429556E+02</pdfrwt>
<totfact> 0.21854600E-01</totfact>
</mgrwt>
</event>
<event>
 4    1  0.2486873E+000  0.5358620E+02  0.7957747E-01  0.1426906E+00
         13   -1    0    0    0    0  0.00000000000E+00  0.00000000000E+00  0.99999944178E+02  0.99999999998E+02  0.10566000000E+00 0.  1.
         22   -1    0    0    0    0 -0.00000000000E+00 -0.00000000000E+00 -0.15545657150E+02  0.15545657150E+02  0.00000000000E+00 0. -1.
         13    1    1    2    0    0  0.91373201672E+01 -0.16970261316E+02  0.53550510385E+01  0.20004202674E+02  0.10566000000E+00 0. -1.
        996    1    1    2    0    0 -0.91373201672E+01  0.16970261316E+02  0.79099235989E+02  0.95541454474E+02  0.50000000000E+02 0.  0.
<mgrwt>
<rscale>  0 0.53586196E+02</rscale>
<asrwt>0</asrwt>
<pdfrwt beam="1">  1       13 0.10000000E+01 0.53586196E+02</pdfrwt>
<pdfrwt beam="2">  1       22 0.15545681E+00 0.53586196E+02</pdfrwt>
<totfact> 0.71136308E-01</totfact>
</mgrwt>
</event>
<event>
 4    1  0.2486873E+000  0.5668570E+02  0.7957747E-01  0.1412291E+00
         13   -1    0    0    0    0  0.00000000000E+00  0.00000000000E+00  0.99999944169E+02  0.99999999989E+02  0.10566000000E+00 0. -1.
         22   -1    0    0    0    0 -0.00000000000E+00 -0.00000000000E+00 -0.19183142916E+02  0.19183142916E+02  0.00000000000E+00 0.  1.
         13    1    1    2    0    0 -0.24016648312E+02 -0.11682020791E+02  0.10104710369E+02  0.28554953013E+02  0.10566000000E+00 0.  1.
        996    1    1    2    0    0  0.24016648312E+02  0.11682020791E+02  0.70712090883E+02  0.90628189892E+02  0.50000000000E+02 0.  0.
<mgrwt>
<rscale>  0 0.56685704E+02</rscale>
<asrwt>0</asrwt>
<pdfrwt beam="1">  1       13 0.10000000E+01 0.56685704E+02</pdfrwt>
<pdfrwt beam="2">  1       22 0.19183165E+00 0.56685704E+02</pdfrwt>
<totfact> 0.49347283E-01</totfact>
</mgrwt>
</event>
<event>
 4    1  0.2486873E+000  0.5188216E+02  0.7957747E-01  0.1435446E+00
         13   -1    0    0    0    0  0.00000000000E+00  0.00000000000E+00  0.99999944181E+02  0.10000000000E+03  0.10566000000E+00 0.  1.
         22   -1    0    0    0    0 -0.00000000000E+00 -0.00000000000E+00 -0.22579714109E+02  0.22579714109E+02  0.00000000000E+00 0.  1.
         13    1    1    2    0    0 -0.13473527543E+02 -0.31973458240E+01 -0.12571633887E+02  0.18703371551E+02  0.10566000000E+00 0. -1.
        996    1    1    2    0    0  0.13473527543E+02  0.31973458240E+01  0.89991863959E+02  0.10387634256E+03  0.50000000000E+02 0.  0.
<mgrwt>
<rscale>  0 0.51882164E+02</rscale>
<asrwt>0</asrwt>
<pdfrwt beam="1">  1       13 0.10000000E+01 0.51882164E+02</pdfrwt>
<pdfrwt beam="2">  1       22 0.22579736E+00 0.51882164E+02</pdfrwt>
<totfact> 0.35963008E-01</totfact>
</mgrwt>
</event>
<event>
 4    1  0.2486873E+000  0.6918658E+02  0.7957747E-01  0.1362881E+00
         13   -1    0    0    0    0  0.00000000000E+00  0.00000000000E+00  0.99999944174E+02  0.99999999994E+02  0.10566000000E+00 0. -1.
         22   -1    0    0    0    0 -0.00000000000E+00 -0.00000000000E+00 -0.60221105940E+02  0.60221105940E+02  0.00000000000E+00 0.  1.
         13    1    1    2    0    0 -0.45054774281E+02  0.16026524165E+02 -0.34306428570E+02  0.58853414239E+02  0.10566000000E+00 0.  1.
        996    1    1    2    0    0  0.45054774281E+02 -0.16026524165E+02  0.74085266803E+02  0.10136769170E+03  0.50000000000E+02 0.  0.
<mgrwt>
<rscale>  0 0.69186575E+02</rscale>
<asrwt>0</asrwt>
<pdfrwt beam="1">  1       13 0.10000000E+01 0.69186575E+02</pdfrwt>
<pdfrwt beam="2">  1       22 0.60221117E+00 0.69186575E+02</pdfrwt>
<totfact> 0.64500397E-02</totfact>
</mgrwt>
</event>
<event>
 4    1  0.2486873E+000  0.5120732E+02  0.7957747E-01  0.1438936E+00
         13   -1    0    0    0    0  0.00000000000E+00  0.00000000000E+00  0.99999944187E+02  0.10000000001E+03  0.10566000000E+00 0. -1.
         22   -1    0    0    0    0 -0.00000000000E+00 -0.00000000000E+00 -0.11544118885E+02  0.11544118885E+02  0.00000000000E+00 0.  1.
         13    1    1    2    0    0  0.10085552828E+02  0.45244718050E+01  0.22572356596E+01  0.11282530648E+02  0.10566000000E+00 0.  1.
        996    1    1    2    0    0 -0.10085552828E+02 -0.45244718050E+01  0.86198589643E+02  0.10026158824E+03  0.50000000000E+02 0.  0.
<mgrwt>
<rscale>  0 0.51207316E+02</rscale>
<asrwt>0</asrwt>
<pdfrwt beam="1">  1       13 0.10000000E+01 0.51207316E+02</pdfrwt>
<pdfrwt beam="2">  1       22 0.11544144E+00 0.51207316E+02</pdfrwt>
<totfact> 0.11380853E+00</totfact>
</mgrwt>
</event>
<event>
 4    1  0.2486873E+000  0.5234367E+02  0.7957747E-01  0.1433095E+00
         13   -1    0    0    0    0  0.00000000000E+00  0.00000000000E+00  0.99999944180E+02  0.10000000000E+03  0.10566000000E+00 0. -1.
         22   -1    0    0    0    0 -0.00000000000E+00 -0.00000000000E+00 -0.33287540666E+02  0.33287540666E+02  0.00000000000E+00 0.  1.
         13    1    1    2    0    0  0.14392435354E+02  0.57199533271E+01 -0.23995895236E+02  0.28560010744E+02  0.10566000000E+00 0.  1.
        996    1    1    2    0    0 -0.14392435354E+02 -0.57199533271E+01  0.90708298750E+02  0.10472752992E+03  0.50000000000E+02 0.  0.
<mgrwt>
<rscale>  0 0.52343673E+02</rscale>
<asrwt>0</asrwt>
<pdfrwt beam="1">  1       13 0.10000000E+01 0.52343673E+02</pdfrwt>
<pdfrwt beam="2">  1       22 0.33287559E+00 0.52343673E+02</pdfrwt>
<totfact> 0.17161316E-01</totfact>
</mgrwt>
</event>
<event>
 4    1  0.2486873E+000  0.5316145E+02  0.7957747E-01  0.1428999E+00
         13   -1    0    0    0    0  0.00000000000E+00  0.00000000000E+00  0.99999944171E+02  0.99999999992E+02  0.10566000000E+00 0.  1.
         22   -1    0    0    0    0 -0.00000000000E+00 -0.00000000000E+00 -0.17906846077E+02  0.17906846077E+02  0.00000000000E+00 0. -1.
         13    1    1    2    0    0  0.43772987726E+01  0.17520819513E+02 -0.22588013048E+01  0.18200362863E+02  0.10566000000E+00 0. -1.
        996    1    1    2    0    0 -0.43772987726E+01 -0.17520819513E+02  0.84351899400E+02  0.99706483206E+02  0.50000000000E+02 0.  0.
<mgrwt>
<rscale>  0 0.53161451E+02</rscale>
<asrwt>0</asrwt>
<pdfrwt beam="1">  1       13 0.10000000E+01 0.53161451E+02</pdfrwt>
<pdfrwt beam="2">  1       22 0.17906869E+00 0.53161451E+02</pdfrwt>
<totfact> 0.55573973E-01</totfact>
</mgrwt>
</event>
<event>
 4    1  0.2486873E+000  0.5203118E+02  0.7957747E-01  0.1434684E+00
         13   -1    0    0    0    0  0.00000000000E+00  0.00000000000E+00  0.99999944179E+02  0.99999999999E+02  0.10566000000E+00 0.  1.
         22   -1    0    0    0    0 -0.00000000000E+00 -0.00000000000E+00 -0.12227729364E+02  0.12227729364E+02  0.00000000000E+00 0. -1.
         13    1    1    2    0    0 -0.12454493444E+02  0.72200799191E+01  0.66615772478E+01  0.15862904414E+02  0.10566000000E+00 0. -1.
        996    1    1    2    0    0  0.12454493444E+02 -0.72200799191E+01  0.81110637567E+02  0.96364824949E+02  0.50000000000E+02 0.  0.
<mgrwt>
<rscale>  0 0.52031183E+02</rscale>
<asrwt>0</asrwt>
<pdfrwt beam="1">  1       13 0.10000000E+01 0.52031183E+02</pdfrwt>
<pdfrwt beam="2">  1       22 0.12227754E+00 0.52031183E+02</pdfrwt>
<totfact> 0.10444004E+00</totfact>
</mgrwt>
</event>
<event>
 4    1  0.2486873E+000  0.5134317E+02  0.7957747E-01  0.1438229E+00
         13   -1    0    0    0    0  0.00000000000E+00  0.00000000000E+00  0.99999944179E+02  0.99999999999E+02  0.10566000000E+00 0. -1.
         22   -1    0    0    0    0 -0.00000000000E+00 -0.00000000000E+00 -0.53262413937E+02  0.53262413937E+02  0.00000000000E+00 0.  1.
         13    1    1    2    0    0  0.40530303328E+01 -0.10940480846E+02 -0.45893724376E+02  0.47353630032E+02  0.10566000000E+00 0.  1.
        996    1    1    2    0    0 -0.40530303328E+01  0.10940480846E+02  0.92631254618E+02  0.10590878390E+03  0.50000000000E+02 0.  0.
<mgrwt>
<rscale>  0 0.51343171E+02</rscale>
<asrwt>0</asrwt>
<pdfrwt beam="1">  1       13 0.10000000E+01 0.51343171E+02</pdfrwt>
<pdfrwt beam="2">  1       22 0.53262427E+00 0.51343171E+02</pdfrwt>
<totfact> 0.62390536E-02</totfact>
</mgrwt>
</event>
<event>
 4    1  0.2486873E+000  0.5492573E+02  0.7957747E-01  0.1420450E+00
         13   -1    0    0    0    0  0.00000000000E+00  0.00000000000E+00  0.99999944185E+02  0.10000000001E+03  0.10566000000E+00 0. -1.
         22   -1    0    0    0    0 -0.00000000000E+00 -0.00000000000E+00 -0.67126975533E+02  0.67126975533E+02  0.00000000000E+00 0.  1.
         13    1    1    2    0    0  0.28097871150E+01  0.22559717061E+02 -0.57242601858E+02  0.61591901814E+02  0.10566000000E+00 0.  1.
        996    1    1    2    0    0 -0.28097871150E+01 -0.22559717061E+02  0.90115570511E+02  0.10553507372E+03  0.50000000000E+02 0.  0.
<mgrwt>
<rscale>  0 0.54925729E+02</rscale>
<asrwt>0</asrwt>
<pdfrwt beam="1">  1       13 0.10000000E+01 0.54925729E+02</pdfrwt>
<pdfrwt beam="2">  1       22 0.67126985E+00 0.54925729E+02</pdfrwt>
<totfact> 0.86000604E-02</totfact>
</mgrwt>
</event>
<event>
 4    1  0.2486873E+000  0.6352861E+02  0.7957747E-01  0.1383593E+00
         13   -1    0    0    0    0  0.00000000000E+00  0.00000000000E+00  0.99999944187E+02  0.10000000001E+03  0.10566000000E+00 0. -1.
         22   -1    0    0    0    0 -0.00000000000E+00 -0.00000000000E+00 -0.61592314120E+02  0.61592314120E+02  0.00000000000E+00 0.  1.
         13    1    1    2    0    0  0.31996419986E+02 -0.22629925109E+02 -0.43098321496E+02  0.58252561164E+02  0.10566000000E+00 0.  1.
        996    1    1    2    0    0 -0.31996419986E+02  0.22629925109E+02  0.81505951563E+02  0.10333975296E+03  0.50000000000E+02 0.  0.
<mgrwt>
<rscale>  0 0.63528611E+02</rscale>
<asrwt>0</asrwt>
<pdfrwt beam="1">  1       13 0.10000000E+01 0.63528611E+02</pdfrwt>
<pdfrwt beam="2">  1       22 0.61592325E+00 0.63528611E+02</pdfrwt>
<totfact> 0.70600767E-02</totfact>
</mgrwt>
</event>
<event>
 4    1  0.2486873E+000  0.5117112E+02  0.7957747E-01  0.1439125E+00
         13   -1    0    0    0    0  0.00000000000E+00  0.00000000000E+00  0.99999944181E+02  0.10000000000E+03  0.10566000000E+00 0.  1.
         22   -1    0    0    0    0 -0.00000000000E+00 -0.00000000000E+00 -0.13401181484E+02  0.13401181484E+02  0.00000000000E+00 0.  1.
         13    1    1    2    0    0 -0.54592656739E+01  0.94169835809E+01 -0.20182604122E+01  0.11071029789E+02  0.10566000000E+00 0. -1.
        996    1    1    2    0    0  0.54592656739E+01 -0.94169835809E+01  0.88617023109E+02  0.10233015170E+03  0.50000000000E+02 0.  0.
<mgrwt>
<rscale>  0 0.51171116E+02</rscale>
<asrwt>0</asrwt>
<pdfrwt beam="1">  1       13 0.10000000E+01 0.51171116E+02</pdfrwt>
<pdfrwt beam="2">  1       22 0.13401206E+00 0.51171116E+02</pdfrwt>
<totfact> 0.90302234E-01</totfact>
</mgrwt>
</event>
<event>
 4    1  0.2486873E+000  0.6140815E+02  0.7957747E-01  0.1392016E+00
         13   -1    0    0    0    0  0.00000000000E+00  0.00000000000E+00  0.99999944182E+02  0.10000000000E+03  0.10566000000E+00 0.  1.
         22   -1    0    0    0    0 -0.00000000000E+00 -0.00000000000E+00 -0.25278033180E+02  0.25278033180E+02  0.00000000000E+00 0. -1.
         13    1    1    2    0    0  0.66396061958E+01  0.35026804269E+02  0.43949903509E+02  0.56591223438E+02  0.10566000000E+00 0. -1.
        996    1    1    2    0    0 -0.66396061958E+01 -0.35026804269E+02  0.30772007492E+02  0.68686809744E+02  0.50000000000E+02 0.  0.
<mgrwt>
<rscale>  0 0.61408154E+02</rscale>
<asrwt>0</asrwt>
<pdfrwt beam="1">  1       13 0.10000000E+01 0.61408154E+02</pdfrwt>
<pdfrwt beam="2">  1       22 0.25278054E+00 0.61408154E+02</pdfrwt>
<totfact> 0.29233271E-01</totfact>
</mgrwt>
</event>
<event>
 4    1  0.2486873E+000  0.5130203E+02  0.7957747E-01  0.1438443E+00
         13   -1    0    0    0    0  0.00000000000E+00  0.00000000000E+00  0.99999944177E+02  0.99999999997E+02  0.10566000000E+00 0. -1.
         22   -1    0    0    0    0 -0.00000000000E+00 -0.00000000000E+00 -0.98584458320E+01  0.98584458320E+01  0.00000000000E+00 0. -1.
         13    1    1    2    0    0  0.10363221282E+02 -0.49499107108E+01  0.17224594186E+02  0.20702554922E+02  0.10566000000E+00 0.  1.
        996    1    1    2    0    0 -0.10363221282E+02  0.49499107108E+01  0.72916904159E+02  0.89155890908E+02  0.50000000000E+02 0.  0.
<mgrwt>
<rscale>  0 0.51302027E+02</rscale>
<asrwt>0</asrwt>
<pdfrwt beam="1">  1       13 0.10000000E+01 0.51302027E+02</pdfrwt>
<pdfrwt beam="2">  1       22 0.98584710E-01 0.51302027E+02</pdfrwt>
<totfact> 0.14367128E+00</totfact>
</mgrwt>
</event>
<event>
 4    1  0.2486873E+000  0.5175456E+02  0.7957747E-01  0.1436101E+00
         13   -1    0    0    0    0  0.00000000000E+00  0.00000000000E+00  0.99999944177E+02  0.99999999997E+02  0.10566000000E+00 0. -1.
         22   -1    0    0    0    0 -0.00000000000E+00 -0.00000000000E+00 -0.11279269154E+02  0.11279269154E+02  0.00000000000E+00 0. -1.
         13    1    1    2    0    0 -0.74485253671E+01 -0.11092984788E+02  0.85794758596E+01  0.15879339146E+02  0.10566000000E+00 0.  1.
        996    1    1    2    0    0  0.74485253671E+01  0.11092984788E+02  0.80141199164E+02  0.95399930005E+02  0.50000000000E+02 0.  0.
<mgrwt>
<rscale>  0 0.51754563E+02</rscale>
<asrwt>0</asrwt>
<pdfrwt beam="1">  1       13 0.10000000E+01 0.51754563E+02</pdfrwt>
<pdfrwt beam="2">  1       22 0.11279294E+00 0.51754563E+02</pdfrwt>
<totfact> 0.11800091E+00</totfact>
</mgrwt>
</event>
<event>
 4    1  0.2486873E+000  0.5599942E+02  0.7957747E-01  0.1415431E+00
         13   -1    0    0    0    0  0.00000000000E+00  0.00000000000E+00  0.99999944189E+02  0.10000000001E+03  0.10566000000E+00 0. -1.
         22   -1    0    0    0    0 -0.00000000000E+00 -0.00000000000E+00 -0.26874780793E+02  0.26874780793E+02  0.00000000000E+00 0.  1.
         13    1    1    2    0    0 -0.16524378246E+02  0.19049399228E+02 -0.95953206675E+01  0.26981772182E+02  0.10566000000E+00 0.  1.
        996    1    1    2    0    0  0.16524378246E+02 -0.19049399228E+02  0.82720484064E+02  0.99893008620E+02  0.50000000000E+02 0.  0.
<mgrwt>
<rscale>  0 0.55999417E+02</rscale>
<asrwt>0</asrwt>
<pdfrwt beam="1">  1       13 0.10000000E+01 0.55999417E+02</pdfrwt>
<pdfrwt beam="2">  1       22 0.26874801E+00 0.55999417E+02</pdfrwt>
<totfact> 0.25719877E-01</totfact>
</mgrwt>
</event>
<event>
 4    1  0.2486873E+000  0.5305194E+02  0.7957747E-01  0.1429543E+00
         13   -1    0    0    0    0  0.00000000000E+00  0.00000000000E+00  0.99999944183E+02  0.10000000000E+03  0.10566000000E+00 0.  1.
         22   -1    0    0    0    0 -0.00000000000E+00 -0.00000000000E+00 -0.18313288240E+02  0.18313288240E+02  0.00000000000E+00 0. -1.
         13    1    1    2    0    0 -0.12397245604E+02  0.12681360784E+02 -0.33852744611E+01  0.18054912271E+02  0.10566000000E+00 0. -1.
        996    1    1    2    0    0  0.12397245604E+02 -0.12681360784E+02  0.85071930404E+02  0.10025837597E+03  0.50000000000E+02 0.  0.
<mgrwt>
<rscale>  0 0.53051943E+02</rscale>
<asrwt>0</asrwt>
<pdfrwt beam="1">  1       13 0.10000000E+01 0.53051943E+02</pdfrwt>
<pdfrwt beam="2">  1       22 0.18313311E+00 0.53051943E+02</pdfrwt>
<totfact> 0.53365122E-01</totfact>
</mgrwt>
</event>
<event>
 4    1  0.2486873E+000  0.5137875E+02  0.7957747E-01  0.1438044E+00
         13   -1    0    0    0    0  0.00000000000E+00  0.00000000000E+00  0.99999944185E+02  0.10000000001E+03  0.10566000000E+00 0. -1.
         22   -1    0    0    0    0 -0.00000000000E+00 -0.00000000000E+00 -0.11335641139E+02  0.11335641139E+02  0.00000000000E+00 0.  1.
         13    1    1    2    0    0  0.10400936153E+02  0.56211113759E+01  0.43456171055E+01  0.12596504199E+02  0.10566000000E+00 0.  1.
        996    1    1    2    0    0 -0.10400936153E+02 -0.56211113759E+01  0.84318685941E+02  0.98739136946E+02  0.50000000000E+02 0.  0.
<mgrwt>
<rscale>  0 0.51378754E+02</rscale>
<asrwt>0</asrwt>
<pdfrwt beam="1">  1       13 0.10000000E+01 0.51378754E+02</pdfrwt>
<pdfrwt beam="2">  1       22 0.11335666E+00 0.51378754E+02</pdfrwt>
<totfact> 0.11702026E+00</totfact>
</mgrwt>
</event>
<event>
 4    1  0.2486873E+000  0.5382154E+02  0.7957747E-01  0.1425755E+00
         13   -1    0    0    0    0  0.00000000000E+00  0.00000000000E+00  0.99999944179E+02  0.99999999999E+02  0.10566000000E+00 0.  1.
         22   -1    0    0    0    0 -0.00000000000E+00 -0.00000000000E+00 -0.13594515032E+02  0.13594515032E+02  0.00000000000E+00 0.  1.
         13    1    1    2    0    0  0.65969541041E+01 -0.18794646158E+02  0.23593196080E+02  0.30877315184E+02  0.10566000000E+00 0. -1.
        996    1    1    2    0    0 -0.65969541041E+01  0.18794646158E+02  0.62812233067E+02  0.82717199847E+02  0.50000000000E+02 0.  0.
<mgrwt>
<rscale>  0 0.53821543E+02</rscale>
<asrwt>0</asrwt>
<pdfrwt beam="1">  1       13 0.10000000E+01 0.53821543E+02</pdfrwt>
<pdfrwt beam="2">  1       22 0.13594539E+00 0.53821543E+02</pdfrwt>
<totfact> 0.88754325E-01</totfact>
</mgrwt>
</event>
<event>
 4    1  0.2486873E+000  0.5540787E+02  0.7957747E-01  0.1418180E+00
         13   -1    0    0    0    0  0.00000000000E+00  0.00000000000E+00  0.99999944183E+02  0.10000000000E+03  0.10566000000E+00 0. -1.
         22   -1    0    0    0    0 -0.00000000000E+00 -0.00000000000E+00 -0.15928208638E+02  0.15928208638E+02  0.00000000000E+00 0. -1.
         13    1    1    2    0    0 -0.15803614085E+02  0.17896304065E+02  0.31707688246E+02  0.39691568062E+02  0.10566000000E+00 0.  1.
        996    1    1    2    0    0  0.15803614085E+02 -0.17896304065E+02  0.52364047298E+02  0.76236640579E+02  0.50000000000E+02 0.  0.
<mgrwt>
<rscale>  0 0.55407869E+02</rscale>
<asrwt>0</asrwt>
<pdfrwt beam="1">  1       13 0.10000000E+01 0.55407869E+02</pdfrwt>
<pdfrwt beam="2">  1       22 0.15928232E+00 0.55407869E+02</pdfrwt>
<totfact> 0.68493226E-01</totfact>
</mgrwt>
</event>
<event>
 4    1  0.2486873E+000  0.5275195E+02  0.7957747E-01  0.1431039E+00
         13   -1    0    0    0    0  0.00000000000E+00  0.00000000000E+00  0.99999944180E+02  0.10000000000E+03  0.10566000000E+00 0. -1.
         22   -1    0    0    0    0 -0.00000000000E+00 -0.00000000000E+00 -0.62791873280E+02  0.62791873280E+02  0.00000000000E+00 0.  1.
         13    1    1    2    0    0  0.16803243299E+02 -0.64730574490E+00 -0.54477453027E+02  0.57013788178E+02  0.10566000000E+00 0.  1.
        996    1    1    2    0    0 -0.16803243299E+02  0.64730574490E+00  0.91685523927E+02  0.10577808510E+03  0.50000000000E+02 0.  0.
<mgrwt>
<rscale>  0 0.52751948E+02</rscale>
<asrwt>0</asrwt>
<pdfrwt beam="1">  1       13 0.10000000E+01 0.52751948E+02</pdfrwt>
<pdfrwt beam="2">  1       22 0.62791884E+00 0.52751948E+02</pdfrwt>
<totfact> 0.77546151E-02</totfact>
</mgrwt>
</event>
<event>
 4    1  0.2486873E+000  0.5649832E+02  0.7957747E-01  0.1413143E+00
         13   -1    0    0    0    0  0.00000000000E+00  0.00000000000E+00  0.99999944182E+02  0.10000000000E+03  0.10566000000E+00 0.  1.
         22   -1    0    0    0    0 -0.00000000000E+00 -0.00000000000E+00 -0.19824160606E+02  0.19824160606E+02  0.00000000000E+00 0.  1.
         13    1    1    2    0    0  0.18948093085E+02  0.18249115045E+02  0.48181928754E+02  0.54895991238E+02  0.10566000000E+00 0. -1.
        996    1    1    2    0    0 -0.18948093085E+02 -0.18249115045E+02  0.31993854822E+02  0.64928169371E+02  0.50000000000E+02 0.  0.
<mgrwt>
<rscale>  0 0.56498322E+02</rscale>
<asrwt>0</asrwt>
<pdfrwt beam="1">  1       13 0.10000000E+01 0.56498322E+02</pdfrwt>
<pdfrwt beam="2">  1       22 0.19824183E+00 0.56498322E+02</pdfrwt>
<totfact> 0.46417829E-01</totfact>
</mgrwt>
</event>
<event>
 4    1  0.2486873E+000  0.5134640E+02  0.7957747E-01  0.1438212E+00
         13   -1    0    0    0    0  0.00000000000E+00  0.00000000000E+00  0.99999944179E+02  0.99999999999E+02  0.10566000000E+00 0.  1.
         22   -1    0    0    0    0 -0.00000000000E+00 -0.00000000000E+00 -0.12537430100E+02  0.12537430100E+02  0.00000000000E+00 0.  1.
         13    1    1    2    0    0  0.76202443031E+01  0.88535041116E+01  0.67865475836E+00  0.11701469763E+02  0.10566000000E+00 0. -1.
        996    1    1    2    0    0 -0.76202443031E+01 -0.88535041116E+01  0.86783859321E+02  0.10083596034E+03  0.50000000000E+02 0.  0.
<mgrwt>
<rscale>  0 0.51346399E+02</rscale>
<asrwt>0</asrwt>
<pdfrwt beam="1">  1       13 0.10000000E+01 0.51346399E+02</pdfrwt>
<pdfrwt beam="2">  1       22 0.12537455E+00 0.51346399E+02</pdfrwt>
<totfact> 0.10032036E+00</totfact>
</mgrwt>
</event>
<event>
 4    1  0.2486873E+000  0.6065057E+02  0.7957747E-01  0.1395122E+00
         13   -1    0    0    0    0  0.00000000000E+00  0.00000000000E+00  0.99999944185E+02  0.10000000000E+03  0.10566000000E+00 0.  1.
         22   -1    0    0    0    0 -0.00000000000E+00 -0.00000000000E+00 -0.31512556932E+02  0.31512556932E+02  0.00000000000E+00 0. -1.
         13    1    1    2    0    0 -0.21681812025E+02 -0.26615614281E+02 -0.66330450208E+01  0.34964272430E+02  0.10566000000E+00 0. -1.
        996    1    1    2    0    0  0.21681812025E+02  0.26615614281E+02  0.75120432274E+02  0.96548284507E+02  0.50000000000E+02 0.  0.
<mgrwt>
<rscale>  0 0.60650572E+02</rscale>
<asrwt>0</asrwt>
<pdfrwt beam="1">  1       13 0.10000000E+01 0.60650572E+02</pdfrwt>
<pdfrwt beam="2">  1       22 0.31512576E+00 0.60650572E+02</pdfrwt>
<totfact> 0.19100693E-01</totfact>
</mgrwt>
</event>
<event>
 4    1  0.2486873E+000  0.5238763E+02  0.7957747E-01  0.1432873E+00
         13   -1    0    0    0    0  0.00000000000E+00  0.00000000000E+00  0.99999944181E+02  0.10000000000E+03  0.10566000000E+00 0. -1.
         22   -1    0    0    0    0 -0.00000000000E+00 -0.00000000000E+00 -0.11742786812E+02  0.11742786812E+02  0.00000000000E+00 0. -1.
         13    1    1    2    0    0  0.14537865350E+02 -0.57545163693E+01  0.26396645225E+02  0.30679928794E+02  0.10566000000E+00 0.  1.
        996    1    1    2    0    0 -0.14537865350E+02  0.57545163693E+01  0.61860512144E+02  0.81062858020E+02  0.50000000000E+02 0.  0.
<mgrwt>
<rscale>  0 0.52387632E+02</rscale>
<asrwt>0</asrwt>
<pdfrwt beam="1">  1       13 0.10000000E+01 0.52387632E+02</pdfrwt>
<pdfrwt beam="2">  1       22 0.11742811E+00 0.52387632E+02</pdfrwt>
<totfact> 0.11120315E+00</totfact>
</mgrwt>
</event>
<event>
 4    1  0.2486873E+000  0.5580244E+02  0.7957747E-01  0.1416342E+00
         13   -1    0    0    0    0  0.00000000000E+00  0.00000000000E+00  0.99999944180E+02  0.10000000000E+03  0.10566000000E+00 0. -1.
         22   -1    0    0    0    0 -0.00000000000E+00 -0.00000000000E+00 -0.24217136871E+02  0.24217136871E+02  0.00000000000E+00 0.  1.
         13    1    1    2    0    0  0.22047734060E+02 -0.11305319235E+02 -0.57317740892E+01  0.25431815083E+02  0.10566000000E+00 0.  1.
        996    1    1    2    0    0 -0.22047734060E+02  0.11305319235E+02  0.81514581399E+02  0.98785321788E+02  0.50000000000E+02 0.  0.
<mgrwt>
<rscale>  0 0.55802445E+02</rscale>
<asrwt>0</asrwt>
<pdfrwt beam="1">  1       13 0.10000000E+01 0.55802445E+02</pdfrwt>
<pdfrwt beam="2">  1       22 0.24217158E+00 0.55802445E+02</pdfrwt>
<totfact> 0.31565706E-01</totfact>
</mgrwt>
</event>
<event>
 4    1  0.2486873E+000  0.5219244E+02  0.7957747E-01  0.1433863E+00
         13   -1    0    0    0    0  0.00000000000E+00  0.00000000000E+00  0.99999944180E+02  0.10000000000E+03  0.10566000000E+00 0. -1.
         22   -1    0    0    0    0 -0.00000000000E+00 -0.00000000000E+00 -0.15401311871E+02  0.15401311871E+02  0.00000000000E+00 0.  1.
         13    1    1    2    0    0  0.16712072709E+01  0.14874721492E+02 -0.11552248578E+01  0.15013193588E+02  0.10566000000E+00 0.  1.
        996    1    1    2    0    0 -0.16712072709E+01 -0.14874721492E+02  0.85753857167E+02  0.10038811828E+03  0.50000000000E+02 0.  0.
<mgrwt>
<rscale>  0 0.52192435E+02</rscale>
<asrwt>0</asrwt>
<pdfrwt beam="1">  1       13 0.10000000E+01 0.52192435E+02</pdfrwt>
<pdfrwt beam="2">  1       22 0.15401335E+00 0.52192435E+02</pdfrwt>
<totfact> 0.72065311E-01</totfact>
</mgrwt>
</event>
<event>
 4    1  0.2486873E+000  0.5129889E+02  0.7957747E-01  0.1438459E+00
         13   -1    0    0    0    0  0.00000000000E+00  0.00000000000E+00  0.99999944175E+02  0.99999999995E+02  0.10566000000E+00 0.  1.
         22   -1    0    0    0    0 -0.00000000000E+00 -0.00000000000E+00 -0.24211579085E+02  0.24211579085E+02  0.00000000000E+00 0. -1.
         13    1    1    2    0    0  0.82258606988E+01 -0.79944747226E+01 -0.15627565088E+02  0.19385777388E+02  0.10566000000E+00 0. -1.
        996    1    1    2    0    0 -0.82258606988E+01  0.79944747226E+01  0.91415930177E+02  0.10482580169E+03  0.50000000000E+02 0.  0.
<mgrwt>
<rscale>  0 0.51298893E+02</rscale>
<asrwt>0</asrwt>
<pdfrwt beam="1">  1       13 0.10000000E+01 0.51298893E+02</pdfrwt>
<pdfrwt beam="2">  1       22 0.24211600E+00 0.51298893E+02</pdfrwt>
<totfact> 0.31359211E-01</totfact>
</mgrwt>
</event>
<event>
 4    1  0.2486873E+000  0.5334635E+02  0.7957747E-01  0.1428085E+00
         13   -1    0    0    0    0  0.00000000000E+00  0.00000000000E+00  0.99999944182E+02  0.10000000000E+03  0.10566000000E+00 0. -1.
         22   -1    0    0    0    0 -0.00000000000E+00 -0.00000000000E+00 -0.13479675454E+02  0.13479675454E+02  0.00000000000E+00 0.  1.
         13    1    1    2    0    0  0.18071760741E+02 -0.43868905629E+01  0.13196735596E+02  0.22803472093E+02  0.10566000000E+00 0.  1.
        996    1    1    2    0    0 -0.18071760741E+02  0.43868905629E+01  0.73323533133E+02  0.90676203362E+02  0.50000000000E+02 0.  0.
<mgrwt>
<rscale>  0 0.53346353E+02</rscale>
<asrwt>0</asrwt>
<pdfrwt beam="1">  1       13 0.10000000E+01 0.53346353E+02</pdfrwt>
<pdfrwt beam="2">  1       22 0.13479700E+00 0.53346353E+02</pdfrwt>
<totfact> 0.89879542E-01</totfact>
</mgrwt>
</event>
<event>
 4    1  0.2486873E+000  0.5243464E+02  0.7957747E-01  0.1432635E+00
         13   -1    0    0    0    0  0.00000000000E+00  0.00000000000E+00  0.99999944184E+02  0.10000000000E+03  0.10566000000E+00 0.  1.
         22   -1    0    0    0    0 -0.00000000000E+00 -0.00000000000E+00 -0.13285627668E+02  0.13285627668E+02  0.00000000000E+00 0.  1.
         13    1    1    2    0    0  0.15660657784E+02  0.20335821809E+01  0.57128605022E+01  0.16794034592E+02  0.10566000000E+00 0. -1.
        996    1    1    2    0    0 -0.15660657784E+02 -0.20335821809E+01  0.81001456014E+02  0.96491593080E+02  0.50000000000E+02 0.  0.
<mgrwt>
<rscale>  0 0.52434642E+02</rscale>
<asrwt>0</asrwt>
<pdfrwt beam="1">  1       13 0.10000000E+01 0.52434642E+02</pdfrwt>
<pdfrwt beam="2">  1       22 0.13285652E+00 0.52434642E+02</pdfrwt>
<totfact> 0.91803890E-01</totfact>
</mgrwt>
</event>
<event>
 4    1  0.2486873E+000  0.5359788E+02  0.7957747E-01  0.1426848E+00
         13   -1    0    0    0    0  0.00000000000E+00  0.00000000000E+00  0.99999944173E+02  0.99999999993E+02  0.10566000000E+00 0.  1.
         22   -1    0    0    0    0 -0.00000000000E+00 -0.00000000000E+00 -0.13330894609E+02  0.13330894609E+02  0.00000000000E+00 0.  1.
         13    1    1    2    0    0  0.44198609926E+01  0.18793541321E+02  0.20167485415E+02  0.27919007837E+02  0.10566000000E+00 0. -1.
        996    1    1    2    0    0 -0.44198609926E+01 -0.18793541321E+02  0.66501564149E+02  0.85411886765E+02  0.50000000000E+02 0.  0.
<mgrwt>
<rscale>  0 0.53597877E+02</rscale>
<asrwt>0</asrwt>
<pdfrwt beam="1">  1       13 0.10000000E+01 0.53597877E+02</pdfrwt>
<pdfrwt beam="2">  1       22 0.13330919E+00 0.53597877E+02</pdfrwt>
<totfact> 0.91532168E-01</totfact>
</mgrwt>
</event>
<event>
 4    1  0.2486873E+000  0.5395752E+02  0.7957747E-01  0.1425094E+00
         13   -1    0    0    0    0  0.00000000000E+00  0.00000000000E+00  0.99999944179E+02  0.99999999999E+02  0.10566000000E+00 0.  1.
         22   -1    0    0    0    0 -0.00000000000E+00 -0.00000000000E+00 -0.22582948851E+02  0.22582948851E+02  0.00000000000E+00 0. -1.
         13    1    1    2    0    0 -0.16802270818E+02 -0.11362126684E+02 -0.77902395518E+01  0.21728166598E+02  0.10566000000E+00 0. -1.
        996    1    1    2    0    0  0.16802270818E+02  0.11362126684E+02  0.85207234879E+02  0.10085478225E+03  0.50000000000E+02 0.  0.
<mgrwt>
<rscale>  0 0.53957522E+02</rscale>
<asrwt>0</asrwt>
<pdfrwt beam="1">  1       13 0.10000000E+01 0.53957522E+02</pdfrwt>
<pdfrwt beam="2">  1       22 0.22582970E+00 0.53957522E+02</pdfrwt>
<totfact> 0.36076305E-01</totfact>
</mgrwt>
</event>
<event>
 4    1  0.2486873E+000  0.5206767E+02  0.7957747E-01  0.1434498E+00
         13   -1    0    0    0    0  0.00000000000E+00  0.00000000000E+00  0.99999944181E+02  0.10000000000E+03  0.10566000000E+00 0. -1.
         22   -1    0    0    0    0 -0.00000000000E+00 -0.00000000000E+00 -0.13014197648E+02  0.13014197648E+02  0.00000000000E+00 0. -1.
         13    1    1    2    0    0 -0.12759538127E+02 -0.69452748372E+01  0.40376307075E+01  0.15078338156E+02  0.10566000000E+00 0.  1.
        996    1    1    2    0    0  0.12759538127E+02  0.69452748372E+01  0.82948115825E+02  0.97935859493E+02  0.50000000000E+02 0.  0.
<mgrwt>
<rscale>  0 0.52067674E+02</rscale>
<asrwt>0</asrwt>
<pdfrwt beam="1">  1       13 0.10000000E+01 0.52067674E+02</pdfrwt>
<pdfrwt beam="2">  1       22 0.13014222E+00 0.52067674E+02</pdfrwt>
<totfact> 0.94777201E-01</totfact>
</mgrwt>
</event>
<event>
 4    1  0.2486873E+000  0.6471571E+02  0.7957747E-01  0.1379044E+00
         13   -1    0    0    0    0  0.00000000000E+00  0.00000000000E+00  0.99999944182E+02  0.10000000000E+03  0.10566000000E+00 0. -1.
         22   -1    0    0    0    0 -0.00000000000E+00 -0.00000000000E+00 -0.51697744435E+02  0.51697744435E+02  0.00000000000E+00 0.  1.
         13    1    1    2    0    0  0.30718105629E+02 -0.27285923411E+02 -0.29439274297E+02  0.50545085469E+02  0.10566000000E+00 0.  1.
        996    1    1    2    0    0 -0.30718105629E+02  0.27285923411E+02  0.77741474044E+02  0.10115265897E+03  0.50000000000E+02 0.  0.
<mgrwt>
<rscale>  0 0.64715714E+02</rscale>
<asrwt>0</asrwt>
<pdfrwt beam="1">  1       13 0.10000000E+01 0.64715714E+02</pdfrwt>
<pdfrwt beam="2">  1       22 0.51697758E+00 0.64715714E+02</pdfrwt>
<totfact> 0.67608676E-02</totfact>
</mgrwt>
</event>
<event>
 4    1  0.2486873E+000  0.6591466E+02  0.7957747E-01  0.1374564E+00
         13   -1    0    0    0    0  0.00000000000E+00  0.00000000000E+00  0.99999944179E+02  0.99999999999E+02  0.10566000000E+00 0.  1.
         22   -1    0    0    0    0 -0.00000000000E+00 -0.00000000000E+00 -0.31659774605E+02  0.31659774605E+02  0.00000000000E+00 0. -1.
         13    1    1    2    0    0 -0.34173185389E+02  0.26017979044E+02  0.11103250347E+02  0.44362542369E+02  0.10566000000E+00 0. -1.
        996    1    1    2    0    0  0.34173185389E+02 -0.26017979044E+02  0.57236919227E+02  0.87297232234E+02  0.50000000000E+02 0.  0.
<mgrwt>
<rscale>  0 0.65914656E+02</rscale>
<asrwt>0</asrwt>
<pdfrwt beam="1">  1       13 0.10000000E+01 0.65914656E+02</pdfrwt>
<pdfrwt beam="2">  1       22 0.31659794E+00 0.65914656E+02</pdfrwt>
<totfact> 0.19038949E-01</totfact>
</mgrwt>
</event>
<event>
 4    1  0.2486873E+000  0.5371053E+02  0.7957747E-01  0.1426297E+00
         13   -1    0    0    0    0  0.00000000000E+00  0.00000000000E+00  0.99999944181E+02  0.10000000000E+03  0.10566000000E+00 0. -1.
         22   -1    0    0    0    0 -0.00000000000E+00 -0.00000000000E+00 -0.15471118825E+02  0.15471118825E+02  0.00000000000E+00 0.  1.
         13    1    1    2    0    0  0.70057895193E+00 -0.19604342210E+02  0.63487589854E+01  0.20618897862E+02  0.10566000000E+00 0.  1.
        996    1    1    2    0    0 -0.70057895193E+00  0.19604342210E+02  0.78180066370E+02  0.94852220965E+02  0.50000000000E+02 0.  0.
<mgrwt>
<rscale>  0 0.53710530E+02</rscale>
<asrwt>0</asrwt>
<pdfrwt beam="1">  1       13 0.10000000E+01 0.53710530E+02</pdfrwt>
<pdfrwt beam="2">  1       22 0.15471142E+00 0.53710530E+02</pdfrwt>
<totfact> 0.71733555E-01</totfact>
</mgrwt>
</event>
<event>
 4    1  0.2486873E+000  0.5358512E+02  0.7957747E-01  0.1426911E+00
         13   -1    0    0    0    0  0.00000000000E+00  0.00000000000E+00  0.99999944190E+02  0.10000000001E+03  0.10566000000E+00 0.  1.
         22   -1    0    0    0    0 -0.00000000000E+00 -0.00000000000E+00 -0.23111869994E+02  0.23111869994E+02  0.00000000000E+00 0. -1.
         13    1    1    2    0    0 -0.10735430605E+02 -0.16003625182E+02 -0.94758298464E+01  0.21474822573E+02  0.10566000000E+00 0. -1.
        996    1    1    2    0    0  0.10735430605E+02  0.16003625182E+02  0.86363904042E+02  0.10163704743E+03  0.50000000000E+02 0.  0.
<mgrwt>
<rscale>  0 0.53585124E+02</rscale>
<asrwt>0</asrwt>
<pdfrwt beam="1">  1       13 0.10000000E+01 0.53585124E+02</pdfrwt>
<pdfrwt beam="2">  1       22 0.23111891E+00 0.53585124E+02</pdfrwt>
<totfact> 0.34469107E-01</totfact>
</mgrwt>
</event>
<event>
 4    1  0.2486873E+000  0.5310104E+02  0.7957747E-01  0.1429299E+00
         13   -1    0    0    0    0  0.00000000000E+00  0.00000000000E+00  0.99999944178E+02  0.99999999998E+02  0.10566000000E+00 0. -1.
         22   -1    0    0    0    0 -0.00000000000E+00 -0.00000000000E+00 -0.53355365209E+02  0.53355365209E+02  0.00000000000E+00 0.  1.
         13    1    1    2    0    0  0.61236139771E+01 -0.16799472644E+02 -0.44451099329E+02  0.47912757434E+02  0.10566000000E+00 0.  1.
        996    1    1    2    0    0 -0.61236139771E+01  0.16799472644E+02  0.91095678299E+02  0.10544260777E+03  0.50000000000E+02 0.  0.
<mgrwt>
<rscale>  0 0.53101045E+02</rscale>
<asrwt>0</asrwt>
<pdfrwt beam="1">  1       13 0.10000000E+01 0.53101045E+02</pdfrwt>
<pdfrwt beam="2">  1       22 0.53355378E+00 0.53101045E+02</pdfrwt>
<totfact> 0.62179079E-02</totfact>
</mgrwt>
</event>
<event>
 4    1  0.2486873E+000  0.5152253E+02  0.7957747E-01  0.1437298E+00
         13   -1    0    0    0    0  0.00000000000E+00  0.00000000000E+00  0.99999944188E+02  0.10000000001E+03  0.10566000000E+00 0. -1.
         22   -1    0    0    0    0 -0.00000000000E+00 -0.00000000000E+00 -0.61548337368E+02  0.61548337368E+02  0.00000000000E+00 0.  1.
         13    1    1    2    0    0  0.12430460499E+02 -0.23332519275E+00 -0.54160483469E+02  0.55569235396E+02  0.10566000000E+00 0.  1.
        996    1    1    2    0    0 -0.12430460499E+02  0.23332519275E+00  0.92612090289E+02  0.10597910198E+03  0.50000000000E+02 0.  0.
<mgrwt>
<rscale>  0 0.51522527E+02</rscale>
<asrwt>0</asrwt>
<pdfrwt beam="1">  1       13 0.10000000E+01 0.51522527E+02</pdfrwt>
<pdfrwt beam="2">  1       22 0.61548348E+00 0.51522527E+02</pdfrwt>
<totfact> 0.70288162E-02</totfact>
</mgrwt>
</event>
<event>
 4    1  0.2486873E+000  0.5412967E+02  0.7957747E-01  0.1424260E+00
         13   -1    0    0    0    0  0.00000000000E+00  0.00000000000E+00  0.99999944177E+02  0.99999999997E+02  0.10566000000E+00 0.  1.
         22   -1    0    0    0    0 -0.00000000000E+00 -0.00000000000E+00 -0.49656803822E+02  0.49656803822E+02  0.00000000000E+00 0.  1.
         13    1    1    2    0    0 -0.19281055538E+02 -0.76329760679E+01 -0.39588792395E+02  0.44691219200E+02  0.10566000000E+00 0. -1.
        996    1    1    2    0    0  0.19281055538E+02  0.76329760679E+01  0.89931932749E+02  0.10496558462E+03  0.50000000000E+02 0.  0.
<mgrwt>
<rscale>  0 0.54129672E+02</rscale>
<asrwt>0</asrwt>
<pdfrwt beam="1">  1       13 0.10000000E+01 0.54129672E+02</pdfrwt>
<pdfrwt beam="2">  1       22 0.49656818E+00 0.54129672E+02</pdfrwt>
<totfact> 0.75094178E-02</totfact>
</mgrwt>
</event>
<event>
 4    1  0.2486873E+000  0.5107470E+02  0.7957747E-01  0.1439630E+00
         13   -1    0    0    0    0  0.00000000000E+00  0.00000000000E+00  0.99999944181E+02  0.10000000000E+03  0.10566000000E+00 0.  1.
         22   -1    0    0    0    0 -0.00000000000E+00 -0.00000000000E+00 -0.14426940772E+02  0.14426940772E+02  0.00000000000E+00 0. -1.
         13    1    1    2    0    0 -0.69796625292E+01 -0.77401300490E+01 -0.41230039529E+01  0.11208729983E+02  0.10566000000E+00 0. -1.
        996    1    1    2    0    0  0.69796625292E+01  0.77401300490E+01  0.89696007362E+02  0.10321821079E+03  0.50000000000E+02 0.  0.
<mgrwt>
<rscale>  0 0.51074703E+02</rscale>
<asrwt>0</asrwt>
<pdfrwt beam="1">  1       13 0.10000000E+01 0.51074703E+02</pdfrwt>
<pdfrwt beam="2">  1       22 0.14426965E+00 0.51074703E+02</pdfrwt>
<totfact> 0.80142114E-01</totfact>
</mgrwt>
</event>
<event>
 4    1  0.2486873E+000  0.5117489E+02  0.7957747E-01  0.1439106E+00
         13   -1    0    0    0    0  0.00000000000E+00  0.00000000000E+00  0.99999944168E+02  0.99999999988E+02  0.10566000000E+00 0. -1.
         22   -1    0    0    0    0 -0.00000000000E+00 -0.00000000000E+00 -0.17793046260E+02  0.17793046260E+02  0.00000000000E+00 0.  1.
         13    1    1    2    0    0  0.99484064570E+01 -0.44608178965E+01 -0.83792734542E+01  0.13751111773E+02  0.10566000000E+00 0.  1.
        996    1    1    2    0    0 -0.99484064570E+01  0.44608178965E+01  0.90586171362E+02  0.10404193448E+03  0.50000000000E+02 0.  0.
<mgrwt>
<rscale>  0 0.51174893E+02</rscale>
<asrwt>0</asrwt>
<pdfrwt beam="1">  1       13 0.10000000E+01 0.51174893E+02</pdfrwt>
<pdfrwt beam="2">  1       22 0.17793069E+00 0.51174893E+02</pdfrwt>
<totfact> 0.56000163E-01</totfact>
</mgrwt>
</event>
<event>
 4    1  0.2486873E+000  0.5431040E+02  0.7957747E-01  0.1423388E+00
         13   -1    0    0    0    0  0.00000000000E+00  0.00000000000E+00  0.99999944180E+02  0.10000000000E+03  0.10566000000E+00 0. -1.
         22   -1    0    0    0    0 -0.00000000000E+00 -0.00000000000E+00 -0.18343775279E+02  0.18343775279E+02  0.00000000000E+00 0.  1.
         13    1    1    2    0    0  0.21123188692E+02 -0.18520375513E+01  0.11558105737E+01  0.21235964912E+02  0.10566000000E+00 0.  1.
        996    1    1    2    0    0 -0.21123188692E+02  0.18520375513E+01  0.80500358327E+02  0.97107810368E+02  0.50000000000E+02 0.  0.
<mgrwt>
<rscale>  0 0.54310396E+02</rscale>
<asrwt>0</asrwt>
<pdfrwt beam="1">  1       13 0.10000000E+01 0.54310396E+02</pdfrwt>
<pdfrwt beam="2">  1       22 0.18343798E+00 0.54310396E+02</pdfrwt>
<totfact> 0.53326262E-01</totfact>
</mgrwt>
</event>
<event>
 4    1  0.2486873E+000  0.6928492E+02  0.7957747E-01  0.1362542E+00
         13   -1    0    0    0    0  0.00000000000E+00  0.00000000000E+00  0.99999944185E+02  0.10000000000E+03  0.10566000000E+00 0. -1.
         22   -1    0    0    0    0 -0.00000000000E+00 -0.00000000000E+00 -0.41446819136E+02  0.41446819136E+02  0.00000000000E+00 0.  1.
         13    1    1    2    0    0 -0.47185818605E+02 -0.85964476000E+01 -0.39637066853E+01  0.48126110621E+02  0.10566000000E+00 0.  1.
        996    1    1    2    0    0  0.47185818605E+02  0.85964476000E+01  0.62516831734E+02  0.93320708521E+02  0.50000000000E+02 0.  0.
<mgrwt>
<rscale>  0 0.69284922E+02</rscale>
<asrwt>0</asrwt>
<pdfrwt beam="1">  1       13 0.10000000E+01 0.69284922E+02</pdfrwt>
<pdfrwt beam="2">  1       22 0.41446836E+00 0.69284922E+02</pdfrwt>
<totfact> 0.11666071E-01</totfact>
</mgrwt>
</event>
<event>
 4    1  0.2486873E+000  0.5801340E+02  0.7957747E-01  0.1406363E+00
         13   -1    0    0    0    0  0.00000000000E+00  0.00000000000E+00  0.99999944180E+02  0.10000000000E+03  0.10566000000E+00 0. -1.
         22   -1    0    0    0    0 -0.00000000000E+00 -0.00000000000E+00 -0.64763409041E+02  0.64763409041E+02  0.00000000000E+00 0.  1.
         13    1    1    2    0    0 -0.18792072766E+02  0.22636538565E+02 -0.52148081115E+02  0.59874772693E+02  0.10566000000E+00 0.  1.
        996    1    1    2    0    0  0.18792072766E+02 -0.22636538565E+02  0.87384616254E+02  0.10488863635E+03  0.50000000000E+02 0.  0.
<mgrwt>
<rscale>  0 0.58013403E+02</rscale>
<asrwt>0</asrwt>
<pdfrwt beam="1">  1       13 0.10000000E+01 0.58013403E+02</pdfrwt>
<pdfrwt beam="2">  1       22 0.64763419E+00 0.58013403E+02</pdfrwt>
<totfact> 0.85833038E-02</totfact>
</mgrwt>
</event>
<event>
 4    1  0.2486873E+000  0.5175790E+02  0.7957747E-01  0.1436084E+00
         13   -1    0    0    0    0  0.00000000000E+00  0.00000000000E+00  0.99999944187E+02  0.10000000001E+03  0.10566000000E+00 0.  1.
         22   -1    0    0    0    0 -0.00000000000E+00 -0.00000000000E+00 -0.26548819581E+02  0.26548819581E+02  0.00000000000E+00 0. -1.
         13    1    1    2    0    0 -0.10945176577E+02  0.76865752005E+01 -0.17425388424E+02  0.21966694207E+02  0.10566000000E+00 0. -1.
        996    1    1    2    0    0  0.10945176577E+02 -0.76865752005E+01  0.90876513031E+02  0.10458212538E+03  0.50000000000E+02 0.  0.
<mgrwt>
<rscale>  0 0.51757901E+02</rscale>
<asrwt>0</asrwt>
<pdfrwt beam="1">  1       13 0.10000000E+01 0.51757901E+02</pdfrwt>
<pdfrwt beam="2">  1       22 0.26548840E+00 0.51757901E+02</pdfrwt>
<totfact> 0.26183151E-01</totfact>
</mgrwt>
</event>
<event>
 4    1  0.2486873E+000  0.8102035E+02  0.7957747E-01  0.1326181E+00
         13   -1    0    0    0    0  0.00000000000E+00  0.00000000000E+00  0.99999944188E+02  0.10000000001E+03  0.10566000000E+00 0.  1.
         22   -1    0    0    0    0 -0.00000000000E+00 -0.00000000000E+00 -0.83577542911E+02  0.83577542911E+02  0.00000000000E+00 0. -1.
         13    1    1    2    0    0 -0.63626897502E+02  0.39893609140E+01 -0.48216087616E+02  0.79931841936E+02  0.10566000000E+00 0. -1.
        996    1    1    2    0    0  0.63626897502E+02 -0.39893609140E+01  0.64638488892E+02  0.10364570098E+03  0.50000000000E+02 0.  0.
<mgrwt>
<rscale>  0 0.81020350E+02</rscale>
<asrwt>0</asrwt>
<pdfrwt beam="1">  1       13 0.10000000E+01 0.81020350E+02</pdfrwt>
<pdfrwt beam="2">  1       22 0.83577548E+00 0.81020350E+02</pdfrwt>
<totfact> 0.21949927E-02</totfact>
</mgrwt>
</event>
<event>
 4    1  0.2486873E+000  0.5614879E+02  0.7957747E-01  0.1414743E+00
         13   -1    0    0    0    0  0.00000000000E+00  0.00000000000E+00  0.99999944180E+02  0.10000000000E+03  0.10566000000E+00 0. -1.
         22   -1    0    0    0    0 -0.00000000000E+00 -0.00000000000E+00 -0.16748371455E+02  0.16748371455E+02  0.00000000000E+00 0. -1.
         13    1    1    2    0    0  0.16909025070E+02 -0.19151272785E+02  0.29399808898E+02  0.38949278624E+02  0.10566000000E+00 0.  1.
        996    1    1    2    0    0 -0.16909025070E+02  0.19151272785E+02  0.53851763826E+02  0.77799092831E+02  0.50000000000E+02 0.  0.
<mgrwt>
<rscale>  0 0.56148788E+02</rscale>
<asrwt>0</asrwt>
<pdfrwt beam="1">  1       13 0.10000000E+01 0.56148788E+02</pdfrwt>
<pdfrwt beam="2">  1       22 0.16748395E+00 0.56148788E+02</pdfrwt>
<totfact> 0.62889114E-01</totfact>
</mgrwt>
</event>
<event>
 4    1  0.2486873E+000  0.5208970E+02  0.7957747E-01  0.1434385E+00
         13   -1    0    0    0    0  0.00000000000E+00  0.00000000000E+00  0.99999944191E+02  0.10000000001E+03  0.10566000000E+00 0. -1.
         22   -1    0    0    0    0 -0.00000000000E+00 -0.00000000000E+00 -0.17777291127E+02  0.17777291127E+02  0.00000000000E+00 0. -1.
         13    1    1    2    0    0 -0.12591973931E+02  0.74013008946E+01 -0.56209988554E+01  0.15650682240E+02  0.10566000000E+00 0.  1.
        996    1    1    2    0    0  0.12591973931E+02 -0.74013008946E+01  0.87843651919E+02  0.10212660890E+03  0.50000000000E+02 0.  0.
<mgrwt>
<rscale>  0 0.52089702E+02</rscale>
<asrwt>0</asrwt>
<pdfrwt beam="1">  1       13 0.10000000E+01 0.52089702E+02</pdfrwt>
<pdfrwt beam="2">  1       22 0.17777314E+00 0.52089702E+02</pdfrwt>
<totfact> 0.56186980E-01</totfact>
</mgrwt>
</event>
<event>
 4    1  0.2486873E+000  0.5919225E+02  0.7957747E-01  0.1401253E+00
         13   -1    0    0    0    0  0.00000000000E+00  0.00000000000E+00  0.99999944181E+02  0.10000000000E+03  0.10566000000E+00 0. -1.
         22   -1    0    0    0    0 -0.00000000000E+00 -0.00000000000E+00 -0.51508280193E+02  0.51508280193E+02  0.00000000000E+00 0.  1.
         13    1    1    2    0    0  0.30873909085E+02 -0.71080587212E+01 -0.36248172375E+02  0.48142122154E+02  0.10566000000E+00 0.  1.
        996    1    1    2    0    0 -0.30873909085E+02  0.71080587212E+01  0.84739836363E+02  0.10336615804E+03  0.50000000000E+02 0.  0.
<mgrwt>
<rscale>  0 0.59192253E+02</rscale>
<asrwt>0</asrwt>
<pdfrwt beam="1">  1       13 0.10000000E+01 0.59192253E+02</pdfrwt>
<pdfrwt beam="2">  1       22 0.51508294E+00 0.59192253E+02</pdfrwt>
<totfact> 0.68134952E-02</totfact>
</mgrwt>
</event>
<event>
 4    1  0.2486873E+000  0.5250902E+02  0.7957747E-01  0.1432260E+00
         13   -1    0    0    0    0  0.00000000000E+00  0.00000000000E+00  0.99999944172E+02  0.99999999992E+02  0.10566000000E+00 0.  1.
         22   -1    0    0    0    0 -0.00000000000E+00 -0.00000000000E+00 -0.19144414686E+02  0.19144414686E+02  0.00000000000E+00 0. -1.
         13    1    1    2    0    0 -0.12735701050E+02 -0.97467723733E+01 -0.64326400818E+01  0.17279689679E+02  0.10566000000E+00 0. -1.
        996    1    1    2    0    0  0.12735701050E+02  0.97467723733E+01  0.87288169567E+02  0.10186472500E+03  0.50000000000E+02 0.  0.
<mgrwt>
<rscale>  0 0.52509024E+02</rscale>
<asrwt>0</asrwt>
<pdfrwt beam="1">  1       13 0.10000000E+01 0.52509024E+02</pdfrwt>
<pdfrwt beam="2">  1       22 0.19144437E+00 0.52509024E+02</pdfrwt>
<totfact> 0.49172257E-01</totfact>
</mgrwt>
</event>
<event>
 4    1  0.2486873E+000  0.5333024E+02  0.7957747E-01  0.1428164E+00
         13   -1    0    0    0    0  0.00000000000E+00  0.00000000000E+00  0.99999944178E+02  0.99999999999E+02  0.10566000000E+00 0.  1.
         22   -1    0    0    0    0 -0.00000000000E+00 -0.00000000000E+00 -0.13381138061E+02  0.13381138061E+02  0.00000000000E+00 0. -1.
         13    1    1    2    0    0 -0.91251298695E+01  0.16150749915E+02  0.13793223820E+02  0.23116636982E+02  0.10566000000E+00 0. -1.
        996    1    1    2    0    0  0.91251298695E+01 -0.16150749915E+02  0.72825582297E+02  0.90264501078E+02  0.50000000000E+02 0.  0.
<mgrwt>
<rscale>  0 0.53330242E+02</rscale>
<asrwt>0</asrwt>
<pdfrwt beam="1">  1       13 0.10000000E+01 0.53330242E+02</pdfrwt>
<pdfrwt beam="2">  1       22 0.13381162E+00 0.53330242E+02</pdfrwt>
<totfact> 0.90934890E-01</totfact>
</mgrwt>
</event>
<event>
 4    1  0.2486873E+000  0.5260593E+02  0.7957747E-01  0.1431772E+00
         13   -1    0    0    0    0  0.00000000000E+00  0.00000000000E+00  0.99999944173E+02  0.99999999993E+02  0.10566000000E+00 0. -1.
         22   -1    0    0    0    0 -0.00000000000E+00 -0.00000000000E+00 -0.12738659693E+02  0.12738659693E+02  0.00000000000E+00 0.  1.
         13    1    1    2    0    0 -0.28932657896E+01  0.16093865677E+02  0.96763423821E+01  0.19000691180E+02  0.10566000000E+00 0.  1.
        996    1    1    2    0    0  0.28932657896E+01 -0.16093865677E+02  0.77584942097E+02  0.93737968506E+02  0.50000000000E+02 0.  0.
<mgrwt>
<rscale>  0 0.52605926E+02</rscale>
<asrwt>0</asrwt>
<pdfrwt beam="1">  1       13 0.10000000E+01 0.52605926E+02</pdfrwt>
<pdfrwt beam="2">  1       22 0.12738684E+00 0.52605926E+02</pdfrwt>
<totfact> 0.98130214E-01</totfact>
</mgrwt>
</event>
<event>
 4    1  0.2486873E+000  0.5215943E+02  0.7957747E-01  0.1434030E+00
         13   -1    0    0    0    0  0.00000000000E+00  0.00000000000E+00  0.99999944176E+02  0.99999999996E+02  0.10566000000E+00 0.  1.
         22   -1    0    0    0    0 -0.00000000000E+00 -0.00000000000E+00 -0.12512226370E+02  0.12512226370E+02  0.00000000000E+00 0.  1.
         13    1    1    2    0    0 -0.93708297950E+00  0.14823212854E+02  0.37214460205E+02  0.40069102513E+02  0.10566000000E+00 0. -1.
        996    1    1    2    0    0  0.93708297950E+00 -0.14823212854E+02  0.50273257601E+02  0.72443123853E+02  0.50000000000E+02 0.  0.
<mgrwt>
<rscale>  0 0.52159426E+02</rscale>
<asrwt>0</asrwt>
<pdfrwt beam="1">  1       13 0.10000000E+01 0.52159426E+02</pdfrwt>
<pdfrwt beam="2">  1       22 0.12512251E+00 0.52159426E+02</pdfrwt>
<totfact> 0.10081553E+00</totfact>
</mgrwt>
</event>
<event>
 4    1  0.2486873E+000  0.5714369E+02  0.7957747E-01  0.1410225E+00
         13   -1    0    0    0    0  0.00000000000E+00  0.00000000000E+00  0.99999944174E+02  0.99999999994E+02  0.10566000000E+00 0.  1.
         22   -1    0    0    0    0 -0.00000000000E+00 -0.00000000000E+00 -0.70852433809E+02  0.70852433809E+02  0.00000000000E+00 0. -1.
         13    1    1    2    0    0 -0.22126947692E+02  0.16607213664E+02 -0.59365787107E+02  0.65495871647E+02  0.10566000000E+00 0. -1.
        996    1    1    2    0    0  0.22126947692E+02 -0.16607213664E+02  0.88513297473E+02  0.10535656216E+03  0.50000000000E+02 0.  0.
<mgrwt>
<rscale>  0 0.57143690E+02</rscale>
<asrwt>0</asrwt>
<pdfrwt beam="1">  1       13 0.10000000E+01 0.57143690E+02</pdfrwt>
<pdfrwt beam="2">  1       22 0.70852442E+00 0.57143690E+02</pdfrwt>
<totfact> 0.70188633E-02</totfact>
</mgrwt>
</event>
<event>
 4    1  0.2486873E+000  0.5884835E+02  0.7957747E-01  0.1402729E+00
         13   -1    0    0    0    0  0.00000000000E+00  0.00000000000E+00  0.99999944165E+02  0.99999999985E+02  0.10566000000E+00 0. -1.
         22   -1    0    0    0    0 -0.00000000000E+00 -0.00000000000E+00 -0.46205916050E+02  0.46205916050E+02  0.00000000000E+00 0.  1.
         13    1    1    2    0    0 -0.26191748309E+02  0.16646931597E+02 -0.30427038451E+02  0.43461981593E+02  0.10566000000E+00 0.  1.
        996    1    1    2    0    0  0.26191748309E+02 -0.16646931597E+02  0.84221066566E+02  0.10274393444E+03  0.50000000000E+02 0.  0.
<mgrwt>
<rscale>  0 0.58848348E+02</rscale>
<asrwt>0</asrwt>
<pdfrwt beam="1">  1       13 0.10000000E+01 0.58848348E+02</pdfrwt>
<pdfrwt beam="2">  1       22 0.46205931E+00 0.58848348E+02</pdfrwt>
<totfact> 0.90995699E-02</totfact>
</mgrwt>
</event>
<event>
 4    1  0.2486873E+000  0.5338462E+02  0.7957747E-01  0.1427896E+00
         13   -1    0    0    0    0  0.00000000000E+00  0.00000000000E+00  0.99999944176E+02  0.99999999997E+02  0.10566000000E+00 0. -1.
         22   -1    0    0    0    0 -0.00000000000E+00 -0.00000000000E+00 -0.13284573577E+02  0.13284573577E+02  0.00000000000E+00 0.  1.
         13    1    1    2    0    0  0.10018234613E+02 -0.15797243845E+02  0.15575139370E+02  0.24341611867E+02  0.10566000000E+00 0.  1.
        996    1    1    2    0    0 -0.10018234613E+02  0.15797243845E+02  0.71140231229E+02  0.88942961707E+02  0.50000000000E+02 0.  0.
<mgrwt>
<rscale>  0 0.53384623E+02</rscale>
<asrwt>0</asrwt>
<pdfrwt beam="1">  1       13 0.10000000E+01 0.53384623E+02</pdfrwt>
<pdfrwt beam="2">  1       22 0.13284598E+00 0.53384623E+02</pdfrwt>
<totfact> 0.91999430E-01</totfact>
</mgrwt>
</event>
<event>
 4    1  0.2486873E+000  0.5159615E+02  0.7957747E-01  0.1436918E+00
         13   -1    0    0    0    0  0.00000000000E+00  0.00000000000E+00  0.99999944181E+02  0.10000000000E+03  0.10566000000E+00 0.  1.
         22   -1    0    0    0    0 -0.00000000000E+00 -0.00000000000E+00 -0.11488506471E+02  0.11488506471E+02  0.00000000000E+00 0. -1.
         13    1    1    2    0    0 -0.47603086786E+01  0.11811099618E+02  0.57768574146E+01  0.13983771256E+02  0.10566000000E+00 0. -1.
        996    1    1    2    0    0  0.47603086786E+01 -0.11811099618E+02  0.82734580295E+02  0.97504735216E+02  0.50000000000E+02 0.  0.
<mgrwt>
<rscale>  0 0.51596149E+02</rscale>
<asrwt>0</asrwt>
<pdfrwt beam="1">  1       13 0.10000000E+01 0.51596149E+02</pdfrwt>
<pdfrwt beam="2">  1       22 0.11488531E+00 0.51596149E+02</pdfrwt>
<totfact> 0.11474316E+00</totfact>
</mgrwt>
</event>
<event>
 4    1  0.2486873E+000  0.5598313E+02  0.7957747E-01  0.1415506E+00
         13   -1    0    0    0    0  0.00000000000E+00  0.00000000000E+00  0.99999944182E+02  0.10000000000E+03  0.10566000000E+00 0. -1.
         22   -1    0    0    0    0 -0.00000000000E+00 -0.00000000000E+00 -0.21942974892E+02  0.21942974892E+02  0.00000000000E+00 0.  1.
         13    1    1    2    0    0  0.87012686663E+01 -0.23630463269E+02 -0.84715801751E+00  0.25196025708E+02  0.10566000000E+00 0.  1.
        996    1    1    2    0    0 -0.87012686663E+01  0.23630463269E+02  0.78904127307E+02  0.96746949186E+02  0.50000000000E+02 0.  0.
<mgrwt>
<rscale>  0 0.55983130E+02</rscale>
<asrwt>0</asrwt>
<pdfrwt beam="1">  1       13 0.10000000E+01 0.55983130E+02</pdfrwt>
<pdfrwt beam="2">  1       22 0.21942997E+00 0.55983130E+02</pdfrwt>
<totfact> 0.38259510E-01</totfact>
</mgrwt>
</event>
<event>
 4    1  0.2486873E+000  0.6604704E+02  0.7957747E-01  0.1374076E+00
         13   -1    0    0    0    0  0.00000000000E+00  0.00000000000E+00  0.99999944181E+02  0.10000000000E+03  0.10566000000E+00 0.  1.
         22   -1    0    0    0    0 -0.00000000000E+00 -0.00000000000E+00 -0.66721887005E+02  0.66721887005E+02  0.00000000000E+00 0. -1.
         13    1    1    2    0    0 -0.24650725796E+02  0.35419667628E+02 -0.46309037155E+02  0.63298888010E+02  0.10566000000E+00 0. -1.
        996    1    1    2    0    0  0.24650725796E+02 -0.35419667628E+02  0.79587094331E+02  0.10342299900E+03  0.50000000000E+02 0.  0.
<mgrwt>
<rscale>  0 0.66047037E+02</rscale>
<asrwt>0</asrwt>
<pdfrwt beam="1">  1       13 0.10000000E+01 0.66047037E+02</pdfrwt>
<pdfrwt beam="2">  1       22 0.66721896E+00 0.66047037E+02</pdfrwt>
<totfact> 0.86733383E-02</totfact>
</mgrwt>
</event>
<event>
 4    1  0.2486873E+000  0.5181025E+02  0.7957747E-01  0.1435815E+00
         13   -1    0    0    0    0  0.00000000000E+00  0.00000000000E+00  0.99999944177E+02  0.99999999997E+02  0.10566000000E+00 0.  1.
         22   -1    0    0    0    0 -0.00000000000E+00 -0.00000000000E+00 -0.32350049354E+02  0.32350049354E+02  0.00000000000E+00 0. -1.
         13    1    1    2    0    0  0.89392612117E+01  0.10217240599E+02 -0.23710033642E+02  0.27321772560E+02  0.10566000000E+00 0. -1.
        996    1    1    2    0    0 -0.89392612117E+01 -0.10217240599E+02  0.91359928465E+02  0.10502827679E+03  0.50000000000E+02 0.  0.
<mgrwt>
<rscale>  0 0.51810254E+02</rscale>
<asrwt>0</asrwt>
<pdfrwt beam="1">  1       13 0.10000000E+01 0.51810254E+02</pdfrwt>
<pdfrwt beam="2">  1       22 0.32350068E+00 0.51810254E+02</pdfrwt>
<totfact> 0.18039885E-01</totfact>
</mgrwt>
</event>
<event>
 4    1  0.2486873E+000  0.5689310E+02  0.7957747E-01  0.1411353E+00
         13   -1    0    0    0    0  0.00000000000E+00  0.00000000000E+00  0.99999944185E+02  0.10000000000E+03  0.10566000000E+00 0. -1.
         22   -1    0    0    0    0 -0.00000000000E+00 -0.00000000000E+00 -0.28619709608E+02  0.28619709608E+02  0.00000000000E+00 0.  1.
         13    1    1    2    0    0  0.13601376973E+02  0.23490999274E+02 -0.10338396313E+02  0.29046826071E+02  0.10566000000E+00 0.  1.
        996    1    1    2    0    0 -0.13601376973E+02 -0.23490999274E+02  0.81718630890E+02  0.99572883542E+02  0.50000000000E+02 0.  0.
<mgrwt>
<rscale>  0 0.56893097E+02</rscale>
<asrwt>0</asrwt>
<pdfrwt beam="1">  1       13 0.10000000E+01 0.56893097E+02</pdfrwt>
<pdfrwt beam="2">  1       22 0.28619730E+00 0.56893097E+02</pdfrwt>
<totfact> 0.22783105E-01</totfact>
</mgrwt>
</event>
<event>
 4    1  0.2486873E+000  0.5754212E+02  0.7957747E-01  0.1408446E+00
         13   -1    0    0    0    0  0.00000000000E+00  0.00000000000E+00  0.99999944179E+02  0.99999999999E+02  0.10566000000E+00 0.  1.
         22   -1    0    0    0    0 -0.00000000000E+00 -0.00000000000E+00 -0.22139151821E+02  0.22139151821E+02  0.00000000000E+00 0.  1.
         13    1    1    2    0    0 -0.27960205558E+02 -0.54150687320E+01  0.43891504019E+01  0.28816173749E+02  0.10566000000E+00 0. -1.
        996    1    1    2    0    0  0.27960205558E+02  0.54150687320E+01  0.73471641956E+02  0.93322978071E+02  0.50000000000E+02 0.  0.
<mgrwt>
<rscale>  0 0.57542124E+02</rscale>
<asrwt>0</asrwt>
<pdfrwt beam="1">  1       13 0.10000000E+01 0.57542124E+02</pdfrwt>
<pdfrwt beam="2">  1       22 0.22139174E+00 0.57542124E+02</pdfrwt>
<totfact> 0.37699564E-01</totfact>
</mgrwt>
</event>
<event>
 4    1  0.2486873E+000  0.5153808E+02  0.7957747E-01  0.1437218E+00
         13   -1    0    0    0    0  0.00000000000E+00  0.00000000000E+00  0.99999944175E+02  0.99999999995E+02  0.10566000000E+00 0. -1.
         22   -1    0    0    0    0 -0.00000000000E+00 -0.00000000000E+00 -0.10302351756E+02  0.10302351756E+02  0.00000000000E+00 0. -1.
         13    1    1    2    0    0  0.11106796082E+02  0.57282787622E+01  0.20721866201E+02  0.24198780954E+02  0.10566000000E+00 0.  1.
        996    1    1    2    0    0 -0.11106796082E+02 -0.57282787622E+01  0.68975726218E+02  0.86103570798E+02  0.50000000000E+02 0.  0.
<mgrwt>
<rscale>  0 0.51538084E+02</rscale>
<asrwt>0</asrwt>
<pdfrwt beam="1">  1       13 0.10000000E+01 0.51538084E+02</pdfrwt>
<pdfrwt beam="2">  1       22 0.10302377E+00 0.51538084E+02</pdfrwt>
<totfact> 0.13485236E+00</totfact>
</mgrwt>
</event>
<event>
 4    1  0.2486873E+000  0.5215057E+02  0.7957747E-01  0.1434075E+00
         13   -1    0    0    0    0  0.00000000000E+00  0.00000000000E+00  0.99999944176E+02  0.99999999996E+02  0.10566000000E+00 0. -1.
         22   -1    0    0    0    0 -0.00000000000E+00 -0.00000000000E+00 -0.23197510043E+02  0.23197510043E+02  0.00000000000E+00 0.  1.
         13    1    1    2    0    0  0.34233142362E+01 -0.14420932861E+02 -0.12760185725E+02  0.19558013414E+02  0.10566000000E+00 0.  1.
        996    1    1    2    0    0 -0.34233142362E+01  0.14420932861E+02  0.89562619858E+02  0.10363949663E+03  0.50000000000E+02 0.  0.
<mgrwt>
<rscale>  0 0.52150574E+02</rscale>
<asrwt>0</asrwt>
<pdfrwt beam="1">  1       13 0.10000000E+01 0.52150574E+02</pdfrwt>
<pdfrwt beam="2">  1       22 0.23197531E+00 0.52150574E+02</pdfrwt>
<totfact> 0.34142004E-01</totfact>
</mgrwt>
</event>
<event>
 4    1  0.2486873E+000  0.5299363E+02  0.7957747E-01  0.1429833E+00
         13   -1    0    0    0    0  0.00000000000E+00  0.00000000000E+00  0.99999944170E+02  0.99999999991E+02  0.10566000000E+00 0.  1.
         22   -1    0    0    0    0 -0.00000000000E+00 -0.00000000000E+00 -0.76524111336E+02  0.76524111336E+02  0.00000000000E+00 0. -1.
         13    1    1    2    0    0  0.13764861286E+02 -0.10901977250E+02 -0.68314169323E+02  0.70534824083E+02  0.10566000000E+00 0. -1.
        996    1    1    2    0    0 -0.13764861286E+02  0.10901977250E+02  0.91790002157E+02  0.10598928724E+03  0.50000000000E+02 0.  0.
<mgrwt>
<rscale>  0 0.52993627E+02</rscale>
<asrwt>0</asrwt>
<pdfrwt beam="1">  1       13 0.10000000E+01 0.52993627E+02</pdfrwt>
<pdfrwt beam="2">  1       22 0.76524118E+00 0.52993627E+02</pdfrwt>
<totfact> 0.42565214E-02</totfact>
</mgrwt>
</event>
<event>
 4    1  0.2486873E+000  0.5113328E+02  0.7957747E-01  0.1439323E+00
         13   -1    0    0    0    0  0.00000000000E+00  0.00000000000E+00  0.99999944179E+02  0.99999999999E+02  0.10566000000E+00 0. -1.
         22   -1    0    0    0    0 -0.00000000000E+00 -0.00000000000E+00 -0.12107877735E+02  0.12107877735E+02  0.00000000000E+00 0. -1.
         13    1    1    2    0    0  0.41476132501E+01  0.98696212230E+01  0.33274714075E+00  0.10711395962E+02  0.10566000000E+00 0.  1.
        996    1    1    2    0    0 -0.41476132501E+01 -0.98696212230E+01  0.87559319303E+02  0.10139648177E+03  0.50000000000E+02 0.  0.
<mgrwt>
<rscale>  0 0.51133278E+02</rscale>
<asrwt>0</asrwt>
<pdfrwt beam="1">  1       13 0.10000000E+01 0.51133278E+02</pdfrwt>
<pdfrwt beam="2">  1       22 0.12107902E+00 0.51133278E+02</pdfrwt>
<totfact> 0.10582186E+00</totfact>
</mgrwt>
</event>
<event>
 4    1  0.2486873E+000  0.5163034E+02  0.7957747E-01  0.1436741E+00
         13   -1    0    0    0    0  0.00000000000E+00  0.00000000000E+00  0.99999944176E+02  0.99999999997E+02  0.10566000000E+00 0. -1.
         22   -1    0    0    0    0 -0.00000000000E+00 -0.00000000000E+00 -0.28137721291E+02  0.28137721291E+02  0.00000000000E+00 0.  1.
         13    1    1    2    0    0  0.12034208027E+02  0.45683638141E+01 -0.19400514819E+02  0.23282681333E+02  0.10566000000E+00 0.  1.
        996    1    1    2    0    0 -0.12034208027E+02 -0.45683638141E+01  0.91262737704E+02  0.10485503996E+03  0.50000000000E+02 0.  0.
<mgrwt>
<rscale>  0 0.51630341E+02</rscale>
<asrwt>0</asrwt>
<pdfrwt beam="1">  1       13 0.10000000E+01 0.51630341E+02</pdfrwt>
<pdfrwt beam="2">  1       22 0.28137741E+00 0.51630341E+02</pdfrwt>
<totfact> 0.23375546E-01</totfact>
</mgrwt>
</event>
<event>
 4    1  0.2486873E+000  0.5114855E+02  0.7957747E-01  0.1439243E+00
         13   -1    0    0    0    0  0.00000000000E+00  0.00000000000E+00  0.99999944183E+02  0.10000000000E+03  0.10566000000E+00 0. -1.
         22   -1    0    0    0    0 -0.00000000000E+00 -0.00000000000E+00 -0.10102595144E+02  0.10102595144E+02  0.00000000000E+00 0. -1.
         13    1    1    2    0    0 -0.91263146986E+01  0.57344919038E+01  0.26743529221E+02  0.28834034345E+02  0.10566000000E+00 0.  1.
        996    1    1    2    0    0  0.91263146986E+01 -0.57344919038E+01  0.63153819817E+02  0.81268560802E+02  0.50000000000E+02 0.  0.
<mgrwt>
<rscale>  0 0.51148549E+02</rscale>
<asrwt>0</asrwt>
<pdfrwt beam="1">  1       13 0.10000000E+01 0.51148549E+02</pdfrwt>
<pdfrwt beam="2">  1       22 0.10102620E+00 0.51148549E+02</pdfrwt>
<totfact> 0.13862166E+00</totfact>
</mgrwt>
</event>
<event>
 4    1  0.2486873E+000  0.5345415E+02  0.7957747E-01  0.1427554E+00
         13   -1    0    0    0    0  0.00000000000E+00  0.00000000000E+00  0.99999944180E+02  0.10000000000E+03  0.10566000000E+00 0. -1.
         22   -1    0    0    0    0 -0.00000000000E+00 -0.00000000000E+00 -0.13100727377E+02  0.13100727377E+02  0.00000000000E+00 0. -1.
         13    1    1    2    0    0 -0.15053640386E+01 -0.18843581377E+02  0.21247040161E+02  0.28439313628E+02  0.10566000000E+00 0.  1.
        996    1    1    2    0    0  0.15053640386E+01  0.18843581377E+02  0.65652176643E+02  0.84661413749E+02  0.50000000000E+02 0.  0.
<mgrwt>
<rscale>  0 0.53454155E+02</rscale>
<asrwt>0</asrwt>
<pdfrwt beam="1">  1       13 0.10000000E+01 0.53454155E+02</pdfrwt>
<pdfrwt beam="2">  1       22 0.13100752E+00 0.53454155E+02</pdfrwt>
<totfact> 0.94068020E-01</totfact>
</mgrwt>
</event>
