<event>
 5    1  0.1360042E-008  0.3842385E+03  0.7957747E-01  0.3432908E+00
         13   -1    0    0    0    0  0.00000000000E+00  0.00000000000E+00  0.14999999963E+04  0.15000000000E+04  0.10566000000E+00 0. -1.
        994   -1    0    0    0    0 -0.00000000000E+00 -0.00000000000E+00  0.11368683772E-12  0.17120000000E+03  0.17120000000E+03 0.  0.
         13    1    1    2    0    0 -0.67234973023E+01 -0.21157907065E+02  0.13044366778E+03  0.13231940174E+03  0.10566000000E+00 0. -1.
        994    1    1    2    0    0  0.10307869833E+02  0.31141278543E+01  0.23910298320E+01  0.17155496786E+03  0.17120000000E+03 0.  0.
        998    1    1    2    0    0 -0.35843725302E+01  0.18043779211E+02  0.13671652987E+04  0.13673256304E+04  0.10000000000E+02 0. -1.
</event>
<event>
 5    1  0.1360042E-008  0.3811694E+03  0.7957747E-01  0.3446083E+00
         13   -1    0    0    0    0  0.00000000000E+00  0.00000000000E+00  0.14999999963E+04  0.15000000000E+04  0.10566000000E+00 0. -1.
        994   -1    0    0    0    0 -0.00000000000E+00 -0.00000000000E+00  0.11368683772E-12  0.17120000000E+03  0.17120000000E+03 0.  0.
         13    1    1    2    0    0 -0.14414725807E+02 -0.35396717504E+01  0.29628741117E+02  0.33138905540E+02  0.10566000000E+00 0. -1.
        994    1    1    2    0    0  0.10586441560E+02  0.32852441156E+01  0.39532795002E+01  0.17160400343E+03  0.17120000000E+03 0.  0.
        998    1    1    2    0    0  0.38282842471E+01  0.25442763483E+00  0.14664179757E+04  0.14664570910E+04  0.10000000000E+02 0. -1.
</event>
<event>
 5    1  0.1360042E-008  0.3838667E+03  0.7957747E-01  0.3434493E+00
         13   -1    0    0    0    0  0.00000000000E+00  0.00000000000E+00  0.14999999963E+04  0.15000000000E+04  0.10566000000E+00 0. -1.
        994   -1    0    0    0    0 -0.00000000000E+00 -0.00000000000E+00  0.11368683772E-12  0.17120000000E+03  0.17120000000E+03 0.  0.
         13    1    1    2    0    0 -0.24458485281E+01  0.10872420970E+02  0.27389589435E+02  0.29570128275E+02  0.10566000000E+00 0. -1.
        994    1    1    2    0    0 -0.42468945119E+00 -0.10534843838E+02  0.25608561095E+01  0.17154346761E+03  0.17120000000E+03 0.  0.
        998    1    1    2    0    0  0.28705379793E+01 -0.33757713250E+00  0.14700495507E+04  0.14700864041E+04  0.10000000000E+02 0. -1.
</event>
<event>
 5    1  0.1360042E-008  0.3847195E+03  0.7957747E-01  0.3430863E+00
         13   -1    0    0    0    0  0.00000000000E+00  0.00000000000E+00  0.14999999963E+04  0.15000000000E+04  0.10566000000E+00 0.  1.
        994   -1    0    0    0    0 -0.00000000000E+00 -0.00000000000E+00  0.11368683772E-12  0.17120000000E+03  0.17120000000E+03 0.  0.
         13    1    1    2    0    0 -0.26867621767E+01  0.20184142527E+02  0.12126519369E+03  0.12296290769E+03  0.10566000000E+00 0.  1.
        994    1    1    2    0    0  0.64247755802E+01 -0.78045601430E+01  0.21058833876E+01  0.17151111814E+03  0.17120000000E+03 0.  0.
        998    1    1    2    0    0 -0.37380134036E+01 -0.12379582384E+02  0.13766289192E+04  0.13767259742E+04  0.10000000000E+02 0.  1.
</event>
<event>
 5    1  0.1360042E-008  0.3834821E+03  0.7957747E-01  0.3436136E+00
         13   -1    0    0    0    0  0.00000000000E+00  0.00000000000E+00  0.14999999963E+04  0.15000000000E+04  0.10566000000E+00 0. -1.
        994   -1    0    0    0    0 -0.00000000000E+00 -0.00000000000E+00  0.11368683772E-12  0.17120000000E+03  0.17120000000E+03 0.  0.
         13    1    1    2    0    0  0.51246829026E+01 -0.21110161177E+02  0.10180577685E+03  0.10409768798E+03  0.10566000000E+00 0. -1.
        994    1    1    2    0    0  0.15590014697E+02  0.12763244097E+02  0.37284235631E+01  0.17242183766E+03  0.17120000000E+03 0.  0.
        998    1    1    2    0    0 -0.20714697600E+02  0.83469170799E+01  0.13944657959E+04  0.13946804744E+04  0.10000000000E+02 0. -1.
</event>
<event>
 5    1  0.1360042E-008  0.3791782E+03  0.7957747E-01  0.3454745E+00
         13   -1    0    0    0    0  0.00000000000E+00  0.00000000000E+00  0.14999999963E+04  0.15000000000E+04  0.10566000000E+00 0.  1.
        994   -1    0    0    0    0 -0.00000000000E+00 -0.00000000000E+00  0.11368683772E-12  0.17120000000E+03  0.17120000000E+03 0.  0.
         13    1    1    2    0    0 -0.72078246592E+00 -0.37695746378E+02  0.14369147557E+03  0.14855551198E+03  0.10566000000E+00 0.  1.
        994    1    1    2    0    0  0.37248604835E+01  0.34712379955E+02  0.86449105547E+01  0.17493712695E+03  0.17120000000E+03 0.  0.
        998    1    1    2    0    0 -0.30040780176E+01  0.29833664227E+01  0.13476636102E+04  0.13477073611E+04  0.10000000000E+02 0.  1.
</event>
<event>
 5    1  0.1360042E-008  0.3853453E+03  0.7957747E-01  0.3428209E+00
         13   -1    0    0    0    0  0.00000000000E+00  0.00000000000E+00  0.14999999963E+04  0.15000000000E+04  0.10566000000E+00 0.  1.
        994   -1    0    0    0    0 -0.00000000000E+00 -0.00000000000E+00  0.11368683772E-12  0.17120000000E+03  0.17120000000E+03 0.  0.
         13    1    1    2    0    0 -0.12658062132E+02 -0.39234452716E+01  0.64250251761E+02  0.65602789385E+02  0.10566000000E+00 0.  1.
        994    1    1    2    0    0 -0.41445377304E+01  0.12728984900E+02  0.20476892886E+01  0.17173478763E+03  0.17120000000E+03 0.  0.
        998    1    1    2    0    0  0.16802599863E+02 -0.88055396287E+01  0.14337020552E+04  0.14338624230E+04  0.10000000000E+02 0.  1.
</event>
<event>
 5    1  0.1718433E-008  0.3848288E+03  0.7957747E-01  0.3430399E+00
         13   -1    0    0    0    0  0.00000000000E+00  0.00000000000E+00  0.14999999963E+04  0.15000000000E+04  0.10566000000E+00 0. -1.
        994   -1    0    0    0    0 -0.00000000000E+00 -0.00000000000E+00  0.11368683772E-12  0.17120000000E+03  0.17120000000E+03 0.  0.
         13    1    1    2    0    0 -0.25969513341E+01  0.11667895453E+02  0.43889105116E+02  0.45487895669E+02  0.10566000000E+00 0. -1.
        994    1    1    2    0    0 -0.29684036130E+01  0.23567668727E+01  0.17624528053E+01  0.17125102046E+03  0.17120000000E+03 0.  0.
        998    1    1    2    0    0  0.55653549471E+01 -0.14024662325E+02  0.14543484384E+04  0.14544610839E+04  0.10000000000E+02 0. -1.
</event>
<event>
 5    1  0.1360042E-008  0.3896433E+03  0.7957747E-01  0.3410215E+00
         13   -1    0    0    0    0  0.00000000000E+00  0.00000000000E+00  0.14999999963E+04  0.15000000000E+04  0.10566000000E+00 0. -1.
        994   -1    0    0    0    0 -0.00000000000E+00 -0.00000000000E+00  0.11368683772E-12  0.17120000000E+03  0.17120000000E+03 0.  0.
         13    1    1    2    0    0  0.24438433507E+02  0.90519464203E+01  0.60695513592E+01  0.26758650639E+02  0.10566000000E+00 0. -1.
        994    1    1    2    0    0 -0.26065347485E+02 -0.19086485465E+02  0.25659257478E+02  0.17610091925E+03  0.17120000000E+03 0.  0.
        998    1    1    2    0    0  0.16269139784E+01  0.10034539044E+02  0.14682711874E+04  0.14683404301E+04  0.10000000000E+02 0. -1.
</event>
<event>
 5    1  0.1360042E-008  0.3856283E+03  0.7957747E-01  0.3427012E+00
         13   -1    0    0    0    0  0.00000000000E+00  0.00000000000E+00  0.14999999963E+04  0.15000000000E+04  0.10566000000E+00 0. -1.
        994   -1    0    0    0    0 -0.00000000000E+00 -0.00000000000E+00  0.11368683772E-12  0.17120000000E+03  0.17120000000E+03 0.  0.
         13    1    1    2    0    0  0.16262632824E+01  0.12140836406E+02  0.55509035217E+02  0.56844602168E+02  0.10566000000E+00 0. -1.
        994    1    1    2    0    0 -0.67614017414E+01 -0.12261990868E+02  0.19622653785E+01  0.17178289629E+03  0.17120000000E+03 0.  0.
        998    1    1    2    0    0  0.51351384590E+01  0.12115446226E+00  0.14425286957E+04  0.14425725015E+04  0.10000000000E+02 0. -1.
</event>
<event>
 5    1  0.1360042E-008  0.3693532E+03  0.7957747E-01  0.3498869E+00
         13   -1    0    0    0    0  0.00000000000E+00  0.00000000000E+00  0.14999999963E+04  0.15000000000E+04  0.10566000000E+00 0. -1.
        994   -1    0    0    0    0 -0.00000000000E+00 -0.00000000000E+00  0.11368683772E-12  0.17120000000E+03  0.17120000000E+03 0.  0.
         13    1    1    2    0    0 -0.61456885555E+01 -0.30579759343E+02  0.46857404140E+02  0.56289596340E+02  0.10566000000E+00 0. -1.
        994    1    1    2    0    0  0.14314097167E+02  0.18869983119E+02  0.11553915189E+02  0.17321634622E+03  0.17120000000E+03 0.  0.
        998    1    1    2    0    0 -0.81684086114E+01  0.11709776225E+02  0.14415886769E+04  0.14416940574E+04  0.10000000000E+02 0. -1.
</event>
<event>
 5    1  0.1360042E-008  0.3740535E+03  0.7957747E-01  0.3477467E+00
         13   -1    0    0    0    0  0.00000000000E+00  0.00000000000E+00  0.14999999963E+04  0.15000000000E+04  0.10566000000E+00 0.  1.
        994   -1    0    0    0    0 -0.00000000000E+00 -0.00000000000E+00  0.11368683772E-12  0.17120000000E+03  0.17120000000E+03 0.  0.
         13    1    1    2    0    0  0.64796466402E+02 -0.79209136901E+02  0.57475608133E+03  0.58379554094E+03  0.10566000000E+00 0.  1.
        994    1    1    2    0    0 -0.40382688206E+02  0.72392839441E+02  0.30972476861E+02  0.19271797797E+03  0.17120000000E+03 0.  0.
        998    1    1    2    0    0 -0.24413778196E+02  0.68162974599E+01  0.89427143809E+03  0.89468648109E+03  0.10000000000E+02 0. -1.
</event>
<event>
 5    1  0.1360042E-008  0.3853131E+03  0.7957747E-01  0.3428346E+00
         13   -1    0    0    0    0  0.00000000000E+00  0.00000000000E+00  0.14999999963E+04  0.15000000000E+04  0.10566000000E+00 0.  1.
        994   -1    0    0    0    0 -0.00000000000E+00 -0.00000000000E+00  0.11368683772E-12  0.17120000000E+03  0.17120000000E+03 0.  0.
         13    1    1    2    0    0  0.13418265886E+02  0.74092367254E+01  0.81323677820E+02  0.82755654710E+02  0.10566000000E+00 0.  1.
        994    1    1    2    0    0 -0.83846308639E+01 -0.66528292002E+00  0.17072393393E+01  0.17141499147E+03  0.17120000000E+03 0.  0.
        998    1    1    2    0    0 -0.50336350223E+01 -0.67439538054E+01  0.14169690791E+04  0.14170293538E+04  0.10000000000E+02 0.  1.
</event>
<event>
 5    1  0.1360042E-008  0.3734541E+03  0.7957747E-01  0.3480165E+00
         13   -1    0    0    0    0  0.00000000000E+00  0.00000000000E+00  0.14999999963E+04  0.15000000000E+04  0.10566000000E+00 0.  1.
        994   -1    0    0    0    0 -0.00000000000E+00 -0.00000000000E+00  0.11368683772E-12  0.17120000000E+03  0.17120000000E+03 0.  0.
         13    1    1    2    0    0  0.13583283904E+02 -0.42875851912E+02  0.12091343367E+03  0.12900741795E+03  0.10566000000E+00 0.  1.
        994    1    1    2    0    0 -0.13683825961E+02  0.46401766643E+02  0.15514341085E+02  0.17857913042E+03  0.17120000000E+03 0.  0.
        998    1    1    2    0    0  0.10054205670E+00 -0.35259147301E+01  0.13635722215E+04  0.13636134516E+04  0.10000000000E+02 0.  1.
</event>
<event>
 5    1  0.1360042E-008  0.3845295E+03  0.7957747E-01  0.3431670E+00
         13   -1    0    0    0    0  0.00000000000E+00  0.00000000000E+00  0.14999999963E+04  0.15000000000E+04  0.10566000000E+00 0. -1.
        994   -1    0    0    0    0 -0.00000000000E+00 -0.00000000000E+00  0.11368683772E-12  0.17120000000E+03  0.17120000000E+03 0.  0.
         13    1    1    2    0    0  0.87695398090E+00  0.15010262137E+02  0.58709686265E+02  0.60604582690E+02  0.10566000000E+00 0. -1.
        994    1    1    2    0    0 -0.85514507182E+01 -0.14577255170E+02  0.28052165465E+01  0.17205502875E+03  0.17120000000E+03 0.  0.
        998    1    1    2    0    0  0.76744967373E+01 -0.43300696757E+00  0.14384850935E+04  0.14385403886E+04  0.10000000000E+02 0. -1.
</event>
<event>
 5    1  0.1360042E-008  0.3804995E+03  0.7957747E-01  0.3448986E+00
         13   -1    0    0    0    0  0.00000000000E+00  0.00000000000E+00  0.14999999963E+04  0.15000000000E+04  0.10566000000E+00 0.  1.
        994   -1    0    0    0    0 -0.00000000000E+00 -0.00000000000E+00  0.11368683772E-12  0.17120000000E+03  0.17120000000E+03 0.  0.
         13    1    1    2    0    0 -0.12092395372E+02 -0.51802540496E+01  0.20397926679E+02  0.24272363599E+02  0.10566000000E+00 0.  1.
        994    1    1    2    0    0  0.13816023313E+02  0.45159017347E+01  0.45866326936E+01  0.17187714528E+03  0.17120000000E+03 0.  0.
        998    1    1    2    0    0 -0.17236279409E+01  0.66435231486E+00  0.14750154369E+04  0.14750504911E+04  0.10000000000E+02 0.  1.
</event>
<event>
 5    1  0.1360042E-008  0.3806420E+03  0.7957747E-01  0.3448368E+00
         13   -1    0    0    0    0  0.00000000000E+00  0.00000000000E+00  0.14999999963E+04  0.15000000000E+04  0.10566000000E+00 0.  1.
        994   -1    0    0    0    0 -0.00000000000E+00 -0.00000000000E+00  0.11368683772E-12  0.17120000000E+03  0.17120000000E+03 0.  0.
         13    1    1    2    0    0 -0.55216265714E+02 -0.18419619770E+02  0.34337947141E+03  0.34827803683E+03  0.10566000000E+00 0.  1.
        994    1    1    2    0    0  0.58202814809E+02  0.10657980623E+02  0.15578306652E+02  0.18180562104E+03  0.17120000000E+03 0.  0.
        998    1    1    2    0    0 -0.29865490950E+01  0.77616391468E+01  0.11410422182E+04  0.11411163421E+04  0.10000000000E+02 0.  1.
</event>
<event>
 5    1  0.1360042E-008  0.3761058E+03  0.7957747E-01  0.3468292E+00
         13   -1    0    0    0    0  0.00000000000E+00  0.00000000000E+00  0.14999999963E+04  0.15000000000E+04  0.10566000000E+00 0. -1.
        994   -1    0    0    0    0 -0.00000000000E+00 -0.00000000000E+00  0.11368683772E-12  0.17120000000E+03  0.17120000000E+03 0.  0.
         13    1    1    2    0    0 -0.34660176075E+02  0.41517329576E+02  0.20789468767E+03  0.21481440544E+03  0.10566000000E+00 0. -1.
        994    1    1    2    0    0  0.36314202050E+02 -0.37914933859E+02  0.15503943970E+02  0.17973890997E+03  0.17120000000E+03 0.  0.
        998    1    1    2    0    0 -0.16540259750E+01 -0.36023957172E+01  0.12766013646E+04  0.12766466846E+04  0.10000000000E+02 0. -1.
</event>
<event>
 5    1  0.1360042E-008  0.3842072E+03  0.7957747E-01  0.3433042E+00
         13   -1    0    0    0    0  0.00000000000E+00  0.00000000000E+00  0.14999999963E+04  0.15000000000E+04  0.10566000000E+00 0. -1.
        994   -1    0    0    0    0 -0.00000000000E+00 -0.00000000000E+00  0.11368683772E-12  0.17120000000E+03  0.17120000000E+03 0.  0.
         13    1    1    2    0    0  0.11226823381E+02 -0.41099381495E+01  0.35009992982E+02  0.36995187896E+02  0.10566000000E+00 0. -1.
        994    1    1    2    0    0 -0.73985491065E+01 -0.22614911388E+00  0.22049350465E+01  0.17137412702E+03  0.17120000000E+03 0.  0.
        998    1    1    2    0    0 -0.38282742743E+01  0.43360872634E+01  0.14627850683E+04  0.14628306851E+04  0.10000000000E+02 0. -1.
</event>
<event>
 5    1  0.1360042E-008  0.3749274E+03  0.7957747E-01  0.3473548E+00
         13   -1    0    0    0    0  0.00000000000E+00  0.00000000000E+00  0.14999999963E+04  0.15000000000E+04  0.10566000000E+00 0. -1.
        994   -1    0    0    0    0 -0.00000000000E+00 -0.00000000000E+00  0.11368683772E-12  0.17120000000E+03  0.17120000000E+03 0.  0.
         13    1    1    2    0    0  0.24028847552E+02 -0.21156699765E+02  0.76924976561E+02  0.83321393667E+02  0.10566000000E+00 0. -1.
        994    1    1    2    0    0 -0.45813180089E+01  0.88359171675E+01  0.70528975351E+01  0.17163404461E+03  0.17120000000E+03 0.  0.
        998    1    1    2    0    0 -0.19447529543E+02  0.12320782598E+02  0.14160221222E+04  0.14162445617E+04  0.10000000000E+02 0. -1.
</event>
<event>
 5    1  0.1360042E-008  0.3847160E+03  0.7957747E-01  0.3430877E+00
         13   -1    0    0    0    0  0.00000000000E+00  0.00000000000E+00  0.14999999963E+04  0.15000000000E+04  0.10566000000E+00 0.  1.
        994   -1    0    0    0    0 -0.00000000000E+00 -0.00000000000E+00  0.11368683772E-12  0.17120000000E+03  0.17120000000E+03 0.  0.
         13    1    1    2    0    0  0.27298674208E+01  0.16285659481E+02  0.87312716097E+02  0.88860544885E+02  0.10566000000E+00 0.  1.
        994    1    1    2    0    0  0.97448282179E+01  0.52958110634E+01  0.21761928430E+01  0.17157267588E+03  0.17120000000E+03 0.  0.
        998    1    1    2    0    0 -0.12474695639E+02 -0.21581470545E+02  0.14105110873E+04  0.14107667792E+04  0.10000000000E+02 0.  1.
</event>
<event>
 5    1  0.1360042E-008  0.3856169E+03  0.7957747E-01  0.3427060E+00
         13   -1    0    0    0    0  0.00000000000E+00  0.00000000000E+00  0.14999999963E+04  0.15000000000E+04  0.10566000000E+00 0.  1.
        994   -1    0    0    0    0 -0.00000000000E+00 -0.00000000000E+00  0.11368683772E-12  0.17120000000E+03  0.17120000000E+03 0.  0.
         13    1    1    2    0    0  0.14766993576E+02  0.32990400559E+01  0.81416450405E+02  0.82810611187E+02  0.10566000000E+00 0.  1.
        994    1    1    2    0    0 -0.21541459383E+02  0.10277802374E+02  0.31960949911E+01  0.17288528774E+03  0.17120000000E+03 0.  0.
        998    1    1    2    0    0  0.67744658072E+01 -0.13576842430E+02  0.14153874509E+04  0.14155041011E+04  0.10000000000E+02 0.  1.
</event>
<event>
 5    1  0.1360042E-008  0.3822577E+03  0.7957747E-01  0.3441387E+00
         13   -1    0    0    0    0  0.00000000000E+00  0.00000000000E+00  0.14999999963E+04  0.15000000000E+04  0.10566000000E+00 0. -1.
        994   -1    0    0    0    0 -0.00000000000E+00 -0.00000000000E+00  0.11368683772E-12  0.17120000000E+03  0.17120000000E+03 0.  0.
         13    1    1    2    0    0 -0.72092109018E+01  0.13376788791E+02  0.41866895066E+02  0.44539412509E+02  0.10566000000E+00 0. -1.
        994    1    1    2    0    0 -0.12822431475E+02  0.13098104228E+02  0.41134245475E+01  0.17222756848E+03  0.17120000000E+03 0.  0.
        998    1    1    2    0    0  0.20031642377E+02 -0.26474893019E+02  0.14540196767E+04  0.14544330190E+04  0.10000000000E+02 0. -1.
</event>
<event>
 5    1  0.1360042E-008  0.3826130E+03  0.7957747E-01  0.3439859E+00
         13   -1    0    0    0    0  0.00000000000E+00  0.00000000000E+00  0.14999999963E+04  0.15000000000E+04  0.10566000000E+00 0.  1.
        994   -1    0    0    0    0 -0.00000000000E+00 -0.00000000000E+00  0.11368683772E-12  0.17120000000E+03  0.17120000000E+03 0.  0.
         13    1    1    2    0    0 -0.27390274530E+02 -0.82856879979E+02  0.47594637961E+03  0.48388062280E+03  0.10566000000E+00 0.  1.
        994    1    1    2    0    0  0.61640864581E+02  0.12166248054E+03  0.67134645419E+02  0.22894946161E+03  0.17120000000E+03 0.  0.
        998    1    1    2    0    0 -0.34250590051E+02 -0.38805600561E+02  0.95691897125E+03  0.95836991559E+03  0.10000000000E+02 0.  1.
</event>
<event>
 5    1  0.1360042E-008  0.3794224E+03  0.7957747E-01  0.3453677E+00
         13   -1    0    0    0    0  0.00000000000E+00  0.00000000000E+00  0.14999999963E+04  0.15000000000E+04  0.10566000000E+00 0. -1.
        994   -1    0    0    0    0 -0.00000000000E+00 -0.00000000000E+00  0.11368683772E-12  0.17120000000E+03  0.17120000000E+03 0.  0.
         13    1    1    2    0    0  0.50835279691E+01 -0.25468363120E+02  0.15153566549E+02  0.30068613533E+02  0.10566000000E+00 0. -1.
        994    1    1    2    0    0  0.18731316598E+02 -0.17549874244E+01  0.17291170960E+02  0.17309640896E+03  0.17120000000E+03 0.  0.
        998    1    1    2    0    0 -0.23814844567E+02  0.27223350544E+02  0.14675552588E+04  0.14680349775E+04  0.10000000000E+02 0. -1.
</event>
<event>
 5    1  0.1360042E-008  0.3793935E+03  0.7957747E-01  0.3453804E+00
         13   -1    0    0    0    0  0.00000000000E+00  0.00000000000E+00  0.14999999963E+04  0.15000000000E+04  0.10566000000E+00 0. -1.
        994   -1    0    0    0    0 -0.00000000000E+00 -0.00000000000E+00  0.11368683772E-12  0.17120000000E+03  0.17120000000E+03 0.  0.
         13    1    1    2    0    0 -0.10751117229E+02  0.20698058325E+02  0.56989532088E+02  0.61577707588E+02  0.10566000000E+00 0. -1.
        994    1    1    2    0    0  0.78219528760E+01 -0.26022702642E+02  0.69168142714E+01  0.17348096818E+03  0.17120000000E+03 0.  0.
        998    1    1    2    0    0  0.29291643530E+01  0.53246443165E+01  0.14360936499E+04  0.14361413242E+04  0.10000000000E+02 0. -1.
</event>
<event>
 5    1  0.1360042E-008  0.3813280E+03  0.7957747E-01  0.3445396E+00
         13   -1    0    0    0    0  0.00000000000E+00  0.00000000000E+00  0.14999999963E+04  0.15000000000E+04  0.10566000000E+00 0. -1.
        994   -1    0    0    0    0 -0.00000000000E+00 -0.00000000000E+00  0.11368683772E-12  0.17120000000E+03  0.17120000000E+03 0.  0.
         13    1    1    2    0    0 -0.30213640795E+02 -0.17143042862E+02  0.16668929860E+03  0.17027061238E+03  0.10566000000E+00 0. -1.
        994    1    1    2    0    0  0.27873021405E+02  0.29028695258E+01  0.60824816487E+01  0.17358504704E+03  0.17120000000E+03 0.  0.
        998    1    1    2    0    0  0.23406193892E+01  0.14240173336E+02  0.13272282160E+04  0.13273443406E+04  0.10000000000E+02 0.  1.
</event>
<event>
 5    1  0.1360042E-008  0.3828987E+03  0.7957747E-01  0.3438633E+00
         13   -1    0    0    0    0  0.00000000000E+00  0.00000000000E+00  0.14999999963E+04  0.15000000000E+04  0.10566000000E+00 0.  1.
        994   -1    0    0    0    0 -0.00000000000E+00 -0.00000000000E+00  0.11368683772E-12  0.17120000000E+03  0.17120000000E+03 0.  0.
         13    1    1    2    0    0  0.38792376252E+01  0.11860683574E+02  0.27969007557E+02  0.30626799492E+02  0.10566000000E+00 0.  1.
        994    1    1    2    0    0 -0.30544948096E+01 -0.10011125841E+02  0.30398120743E+01  0.17154659145E+03  0.17120000000E+03 0.  0.
        998    1    1    2    0    0 -0.82474281565E+00 -0.18495577327E+01  0.14689911766E+04  0.14690266091E+04  0.10000000000E+02 0.  1.
</event>
<event>
 5    1  0.1360042E-008  0.3696135E+03  0.7957747E-01  0.3497669E+00
         13   -1    0    0    0    0  0.00000000000E+00  0.00000000000E+00  0.14999999963E+04  0.15000000000E+04  0.10566000000E+00 0. -1.
        994   -1    0    0    0    0 -0.00000000000E+00 -0.00000000000E+00  0.11368683772E-12  0.17120000000E+03  0.17120000000E+03 0.  0.
         13    1    1    2    0    0 -0.11541423184E+02 -0.36070096069E+02  0.70402377076E+02  0.79942242535E+02  0.10566000000E+00 0. -1.
        994    1    1    2    0    0  0.38094014875E+01  0.32912139786E+02  0.13281333077E+02  0.17488154360E+03  0.17120000000E+03 0.  0.
        998    1    1    2    0    0  0.77320216962E+01  0.31579562834E+01  0.14163162861E+04  0.14163762139E+04  0.10000000000E+02 0. -1.
</event>
<event>
 5    1  0.1360042E-008  0.3829071E+03  0.7957747E-01  0.3438597E+00
         13   -1    0    0    0    0  0.00000000000E+00  0.00000000000E+00  0.14999999963E+04  0.15000000000E+04  0.10566000000E+00 0. -1.
        994   -1    0    0    0    0 -0.00000000000E+00 -0.00000000000E+00  0.11368683772E-12  0.17120000000E+03  0.17120000000E+03 0.  0.
         13    1    1    2    0    0  0.36424014155E+01 -0.10167073929E+02  0.20956599874E+02  0.23575977661E+02  0.10566000000E+00 0. -1.
        994    1    1    2    0    0 -0.74848916876E+01  0.32383510042E+01  0.28930599763E+01  0.17141855301E+03  0.17120000000E+03 0.  0.
        998    1    1    2    0    0  0.38424902721E+01  0.69287229250E+01  0.14761503364E+04  0.14762054693E+04  0.10000000000E+02 0. -1.
</event>
<event>
 5    1  0.1360042E-008  0.3783307E+03  0.7957747E-01  0.3458460E+00
         13   -1    0    0    0    0  0.00000000000E+00  0.00000000000E+00  0.14999999963E+04  0.15000000000E+04  0.10566000000E+00 0. -1.
        994   -1    0    0    0    0 -0.00000000000E+00 -0.00000000000E+00  0.11368683772E-12  0.17120000000E+03  0.17120000000E+03 0.  0.
         13    1    1    2    0    0  0.12869437268E+02  0.16140381166E+02  0.36943341292E+02  0.42319687494E+02  0.10566000000E+00 0. -1.
        994    1    1    2    0    0 -0.26913537380E+02 -0.36882232011E+02  0.12017827845E+02  0.17759083794E+03  0.17120000000E+03 0.  0.
        998    1    1    2    0    0  0.14044100112E+02  0.20741850845E+02  0.14510388271E+04  0.14512894746E+04  0.10000000000E+02 0. -1.
</event>
<event>
 5    1  0.1360042E-008  0.3780363E+03  0.7957747E-01  0.3459754E+00
         13   -1    0    0    0    0  0.00000000000E+00  0.00000000000E+00  0.14999999963E+04  0.15000000000E+04  0.10566000000E+00 0. -1.
        994   -1    0    0    0    0 -0.00000000000E+00 -0.00000000000E+00  0.11368683772E-12  0.17120000000E+03  0.17120000000E+03 0.  0.
         13    1    1    2    0    0  0.29537054991E+02 -0.98379068779E+02  0.57246231203E+03  0.58160466698E+03  0.10566000000E+00 0. -1.
        994    1    1    2    0    0 -0.30165952902E+02  0.10420925266E+03  0.45810815788E+02  0.20779226140E+03  0.17120000000E+03 0.  0.
        998    1    1    2    0    0  0.62889791108E+00 -0.58301838831E+01  0.88172686846E+03  0.88180307162E+03  0.10000000000E+02 0. -1.
</event>
<event>
 5    1  0.1360042E-008  0.3810355E+03  0.7957747E-01  0.3446662E+00
         13   -1    0    0    0    0  0.00000000000E+00  0.00000000000E+00  0.14999999963E+04  0.15000000000E+04  0.10566000000E+00 0. -1.
        994   -1    0    0    0    0 -0.00000000000E+00 -0.00000000000E+00  0.11368683772E-12  0.17120000000E+03  0.17120000000E+03 0.  0.
         13    1    1    2    0    0 -0.16864608176E+01 -0.21920328916E+02  0.63572100408E+02  0.67266396397E+02  0.10566000000E+00 0. -1.
        994    1    1    2    0    0 -0.56547199757E+02  0.27503960646E+02  0.16898419030E+02  0.18316399815E+03  0.17120000000E+03 0.  0.
        998    1    1    2    0    0  0.58233660575E+02 -0.55836317301E+01  0.14195294768E+04  0.14207696055E+04  0.10000000000E+02 0. -1.
</event>
<event>
 5    1  0.1360042E-008  0.3695569E+03  0.7957747E-01  0.3497930E+00
         13   -1    0    0    0    0  0.00000000000E+00  0.00000000000E+00  0.14999999963E+04  0.15000000000E+04  0.10566000000E+00 0. -1.
        994   -1    0    0    0    0 -0.00000000000E+00 -0.00000000000E+00  0.11368683772E-12  0.17120000000E+03  0.17120000000E+03 0.  0.
         13    1    1    2    0    0  0.12922944480E+02 -0.40606907708E+01  0.52026585649E+01  0.14511048334E+02  0.10566000000E+00 0. -1.
        994    1    1    2    0    0 -0.17694297038E+02  0.24156385780E+01  0.10606014365E+02  0.17245535944E+03  0.17120000000E+03 0.  0.
        998    1    1    2    0    0  0.47713525581E+01  0.16450521928E+01  0.14841913233E+04  0.14842335922E+04  0.10000000000E+02 0. -1.
</event>
<event>
 5    1  0.1360042E-008  0.3793497E+03  0.7957747E-01  0.3453995E+00
         13   -1    0    0    0    0  0.00000000000E+00  0.00000000000E+00  0.14999999963E+04  0.15000000000E+04  0.10566000000E+00 0.  1.
        994   -1    0    0    0    0 -0.00000000000E+00 -0.00000000000E+00  0.11368683772E-12  0.17120000000E+03  0.17120000000E+03 0.  0.
         13    1    1    2    0    0 -0.20907482408E+02 -0.73972210997E+01  0.51623649933E+02  0.56185888772E+02  0.10566000000E+00 0.  1.
        994    1    1    2    0    0  0.22319157571E+02  0.81781285725E+01  0.63569906058E+01  0.17295917990E+03  0.17120000000E+03 0.  0.
        998    1    1    2    0    0 -0.14116751624E+01 -0.78090747284E+00  0.14420193557E+04  0.14420549313E+04  0.10000000000E+02 0.  1.
</event>
<event>
 5    1  0.1360042E-008  0.3834508E+03  0.7957747E-01  0.3436269E+00
         13   -1    0    0    0    0  0.00000000000E+00  0.00000000000E+00  0.14999999963E+04  0.15000000000E+04  0.10566000000E+00 0. -1.
        994   -1    0    0    0    0 -0.00000000000E+00 -0.00000000000E+00  0.11368683772E-12  0.17120000000E+03  0.17120000000E+03 0.  0.
         13    1    1    2    0    0  0.88566296448E+01 -0.84821367197E+01  0.31034190755E+02  0.33369427502E+02  0.10566000000E+00 0. -1.
        994    1    1    2    0    0 -0.37999256662E+01  0.22959385869E+01  0.24664088474E+01  0.17127531621E+03  0.17120000000E+03 0.  0.
        998    1    1    2    0    0 -0.50567039786E+01  0.61861981328E+01  0.14664993967E+04  0.14665552563E+04  0.10000000000E+02 0. -1.
</event>
<event>
 5    1  0.1360042E-008  0.3908617E+03  0.7957747E-01  0.3405186E+00
         13   -1    0    0    0    0  0.00000000000E+00  0.00000000000E+00  0.14999999963E+04  0.15000000000E+04  0.10566000000E+00 0.  1.
        994   -1    0    0    0    0 -0.00000000000E+00 -0.00000000000E+00  0.11368683772E-12  0.17120000000E+03  0.17120000000E+03 0.  0.
         13    1    1    2    0    0  0.68317199414E+02 -0.20385590681E+02  0.98156880123E+02  0.12131610084E+03  0.10566000000E+00 0.  1.
        994    1    1    2    0    0 -0.71129610131E+02  0.25605310485E+02  0.44337682838E+02  0.19232868606E+03  0.17120000000E+03 0.  0.
        998    1    1    2    0    0  0.28124107167E+01 -0.52197198035E+01  0.13575054333E+04  0.13575552131E+04  0.10000000000E+02 0.  1.
</event>
<event>
 5    1  0.1360042E-008  0.3818919E+03  0.7957747E-01  0.3442962E+00
         13   -1    0    0    0    0  0.00000000000E+00  0.00000000000E+00  0.14999999963E+04  0.15000000000E+04  0.10566000000E+00 0. -1.
        994   -1    0    0    0    0 -0.00000000000E+00 -0.00000000000E+00  0.11368683772E-12  0.17120000000E+03  0.17120000000E+03 0.  0.
         13    1    1    2    0    0 -0.15817017767E+02 -0.13923941942E+01  0.37889024900E+02  0.41081701334E+02  0.10566000000E+00 0. -1.
        994    1    1    2    0    0  0.15034454421E+02 -0.76195690837E+00  0.39343610210E+01  0.17190559792E+03  0.17120000000E+03 0.  0.
        998    1    1    2    0    0  0.78256334549E+00  0.21543511025E+01  0.14581766104E+04  0.14582127008E+04  0.10000000000E+02 0. -1.
</event>
<event>
 5    1  0.1360042E-008  0.3825759E+03  0.7957747E-01  0.3440019E+00
         13   -1    0    0    0    0  0.00000000000E+00  0.00000000000E+00  0.14999999963E+04  0.15000000000E+04  0.10566000000E+00 0.  1.
        994   -1    0    0    0    0 -0.00000000000E+00 -0.00000000000E+00  0.11368683772E-12  0.17120000000E+03  0.17120000000E+03 0.  0.
         13    1    1    2    0    0 -0.19088982586E+02  0.25176298977E+02  0.18504371192E+03  0.18772166037E+03  0.10566000000E+00 0.  1.
        994    1    1    2    0    0 -0.35614074272E+00 -0.15461593948E+02  0.36317155168E+01  0.17193550268E+03  0.17120000000E+03 0.  0.
        998    1    1    2    0    0  0.19445123329E+02 -0.97147050290E+01  0.13113245688E+04  0.13115428369E+04  0.10000000000E+02 0.  1.
</event>
<event>
 5    1  0.1360042E-008  0.3837582E+03  0.7957747E-01  0.3434956E+00
         13   -1    0    0    0    0  0.00000000000E+00  0.00000000000E+00  0.14999999963E+04  0.15000000000E+04  0.10566000000E+00 0. -1.
        994   -1    0    0    0    0 -0.00000000000E+00 -0.00000000000E+00  0.11368683772E-12  0.17120000000E+03  0.17120000000E+03 0.  0.
         13    1    1    2    0    0 -0.12972233061E+02  0.36330364452E+01  0.40380112545E+02  0.42568091778E+02  0.10566000000E+00 0. -1.
        994    1    1    2    0    0  0.61877733091E+01  0.14042842801E+01  0.23808715927E+01  0.17133408622E+03  0.17120000000E+03 0.  0.
        998    1    1    2    0    0  0.67844597519E+01 -0.50373207253E+01  0.14572390121E+04  0.14572978220E+04  0.10000000000E+02 0. -1.
</event>
<event>
 5    1  0.1360042E-008  0.3839565E+03  0.7957747E-01  0.3434110E+00
         13   -1    0    0    0    0  0.00000000000E+00  0.00000000000E+00  0.14999999963E+04  0.15000000000E+04  0.10566000000E+00 0. -1.
        994   -1    0    0    0    0 -0.00000000000E+00 -0.00000000000E+00  0.11368683772E-12  0.17120000000E+03  0.17120000000E+03 0.  0.
         13    1    1    2    0    0 -0.12301461771E+02 -0.13709896156E+02  0.88604206564E+02  0.90498639764E+02  0.10566000000E+00 0. -1.
        994    1    1    2    0    0 -0.62422630594E+00 -0.80966922600E+01  0.23667516276E+01  0.17140883174E+03  0.17120000000E+03 0.  0.
        998    1    1    2    0    0  0.12925688077E+02  0.21806588416E+02  0.14090290381E+04  0.14092925285E+04  0.10000000000E+02 0. -1.
</event>
<event>
 5    1  0.1360042E-008  0.3803683E+03  0.7957747E-01  0.3449556E+00
         13   -1    0    0    0    0  0.00000000000E+00  0.00000000000E+00  0.14999999963E+04  0.15000000000E+04  0.10566000000E+00 0. -1.
        994   -1    0    0    0    0 -0.00000000000E+00 -0.00000000000E+00  0.11368683772E-12  0.17120000000E+03  0.17120000000E+03 0.  0.
         13    1    1    2    0    0  0.92692356025E+01 -0.29250226332E+02  0.13200338657E+03  0.13552269072E+03  0.10566000000E+00 0. -1.
        994    1    1    2    0    0 -0.63455124329E+01 -0.19976687552E+01  0.40951290980E+01  0.17137813831E+03  0.17120000000E+03 0.  0.
        998    1    1    2    0    0 -0.29237231696E+01  0.31247895087E+02  0.13639014806E+04  0.13642991710E+04  0.10000000000E+02 0. -1.
</event>
<event>
 5    1  0.1360042E-008  0.3711018E+03  0.7957747E-01  0.3490842E+00
         13   -1    0    0    0    0  0.00000000000E+00  0.00000000000E+00  0.14999999963E+04  0.15000000000E+04  0.10566000000E+00 0. -1.
        994   -1    0    0    0    0 -0.00000000000E+00 -0.00000000000E+00  0.11368683772E-12  0.17120000000E+03  0.17120000000E+03 0.  0.
         13    1    1    2    0    0  0.10250448358E+03 -0.11965968304E+02  0.47573505014E+03  0.48679996163E+03  0.10566000000E+00 0. -1.
        994    1    1    2    0    0 -0.53318270192E+02  0.28399479289E+02  0.24442489319E+02  0.18318363367E+03  0.17120000000E+03 0.  0.
        998    1    1    2    0    0 -0.49186213389E+02 -0.16433510985E+02  0.99982245682E+03  0.10012164047E+04  0.10000000000E+02 0. -1.
</event>
<event>
 5    1  0.1360042E-008  0.3829998E+03  0.7957747E-01  0.3438200E+00
         13   -1    0    0    0    0  0.00000000000E+00  0.00000000000E+00  0.14999999963E+04  0.15000000000E+04  0.10566000000E+00 0.  1.
        994   -1    0    0    0    0 -0.00000000000E+00 -0.00000000000E+00  0.11368683772E-12  0.17120000000E+03  0.17120000000E+03 0.  0.
         13    1    1    2    0    0 -0.10836537253E+02  0.78642786007E+01  0.32890059930E+02  0.35511190121E+02  0.10566000000E+00 0.  1.
        994    1    1    2    0    0  0.88195505817E+01 -0.84194204212E+01  0.31187609386E+01  0.17166198700E+03  0.17120000000E+03 0.  0.
        998    1    1    2    0    0  0.20169866710E+01  0.55514182050E+00  0.14639911754E+04  0.14640268229E+04  0.10000000000E+02 0.  1.
</event>
<event>
 5    1  0.1360042E-008  0.3837118E+03  0.7957747E-01  0.3435154E+00
         13   -1    0    0    0    0  0.00000000000E+00  0.00000000000E+00  0.14999999963E+04  0.15000000000E+04  0.10566000000E+00 0. -1.
        994   -1    0    0    0    0 -0.00000000000E+00 -0.00000000000E+00  0.11368683772E-12  0.17120000000E+03  0.17120000000E+03 0.  0.
         13    1    1    2    0    0 -0.11369300611E+02  0.19928851404E+02  0.12246676420E+03  0.12459751045E+03  0.10566000000E+00 0. -1.
        994    1    1    2    0    0  0.28576446897E+01 -0.55095722840E+01  0.23982902709E+01  0.17132925412E+03  0.17120000000E+03 0.  0.
        998    1    1    2    0    0  0.85116559211E+01 -0.14419279120E+02  0.13751349418E+04  0.13752732354E+04  0.10000000000E+02 0. -1.
</event>
<event>
 5    1  0.1360042E-008  0.4058567E+03  0.7957747E-01  0.3345763E+00
         13   -1    0    0    0    0  0.00000000000E+00  0.00000000000E+00  0.14999999963E+04  0.15000000000E+04  0.10566000000E+00 0.  1.
        994   -1    0    0    0    0 -0.00000000000E+00 -0.00000000000E+00  0.11368683772E-12  0.17120000000E+03  0.17120000000E+03 0.  0.
         13    1    1    2    0    0 -0.85937134745E+02 -0.12213417131E+03  0.40101140298E+03  0.42791600042E+03  0.10566000000E+00 0.  1.
        994    1    1    2    0    0  0.69950075351E+02  0.31988281835E+02  0.55471885274E+02  0.19571109645E+03  0.17120000000E+03 0.  0.
        998    1    1    2    0    0  0.15987059394E+02  0.90145889475E+02  0.10435167080E+04  0.10475729031E+04  0.10000000000E+02 0.  1.
</event>
<event>
 5    1  0.1360042E-008  0.3795828E+03  0.7957747E-01  0.3452977E+00
         13   -1    0    0    0    0  0.00000000000E+00  0.00000000000E+00  0.14999999963E+04  0.15000000000E+04  0.10566000000E+00 0.  1.
        994   -1    0    0    0    0 -0.00000000000E+00 -0.00000000000E+00  0.11368683772E-12  0.17120000000E+03  0.17120000000E+03 0.  0.
         13    1    1    2    0    0  0.23073748323E+02 -0.10041786093E+02  0.71795068553E+02  0.76077449762E+02  0.10566000000E+00 0.  1.
        994    1    1    2    0    0 -0.10935214332E+02  0.10745778491E+02  0.51311332381E+01  0.17196167944E+03  0.17120000000E+03 0.  0.
        998    1    1    2    0    0 -0.12138533991E+02 -0.70399239800E+00  0.14230737945E+04  0.14231608708E+04  0.10000000000E+02 0.  1.
</event>
<event>
 5    1  0.1360042E-008  0.3753106E+03  0.7957747E-01  0.3471835E+00
         13   -1    0    0    0    0  0.00000000000E+00  0.00000000000E+00  0.14999999963E+04  0.15000000000E+04  0.10566000000E+00 0. -1.
        994   -1    0    0    0    0 -0.00000000000E+00 -0.00000000000E+00  0.11368683772E-12  0.17120000000E+03  0.17120000000E+03 0.  0.
         13    1    1    2    0    0  0.40626014748E+01  0.10265699286E+03  0.34702247139E+03  0.36191099697E+03  0.10566000000E+00 0. -1.
        994    1    1    2    0    0  0.68694899989E+02 -0.82196374966E+02  0.55872933730E+02  0.20953867916E+03  0.17120000000E+03 0.  0.
        998    1    1    2    0    0 -0.72757501463E+02 -0.20460617894E+02  0.10971045912E+04  0.10997503239E+04  0.10000000000E+02 0. -1.
</event>
<event>
 5    1  0.1360042E-008  0.3831252E+03  0.7957747E-01  0.3437663E+00
         13   -1    0    0    0    0  0.00000000000E+00  0.00000000000E+00  0.14999999963E+04  0.15000000000E+04  0.10566000000E+00 0. -1.
        994   -1    0    0    0    0 -0.00000000000E+00 -0.00000000000E+00  0.11368683772E-12  0.17120000000E+03  0.17120000000E+03 0.  0.
         13    1    1    2    0    0  0.74688846059E+01 -0.87112459470E+01  0.25984973194E+02  0.28405985974E+02  0.10566000000E+00 0. -1.
        994    1    1    2    0    0  0.14673891722E+01 -0.63179862568E+01  0.27030311291E+01  0.17134414655E+03  0.17120000000E+03 0.  0.
        998    1    1    2    0    0 -0.89362737781E+01  0.15029232204E+02  0.14713119920E+04  0.14714498675E+04  0.10000000000E+02 0. -1.
</event>
<event>
 5    1  0.1360042E-008  0.3720254E+03  0.7957747E-01  0.3486634E+00
         13   -1    0    0    0    0  0.00000000000E+00  0.00000000000E+00  0.14999999963E+04  0.15000000000E+04  0.10566000000E+00 0. -1.
        994   -1    0    0    0    0 -0.00000000000E+00 -0.00000000000E+00  0.11368683772E-12  0.17120000000E+03  0.17120000000E+03 0.  0.
         13    1    1    2    0    0  0.34441125757E+02  0.12778578957E+02  0.51015582584E+02  0.62865603107E+02  0.10566000000E+00 0. -1.
        994    1    1    2    0    0 -0.25660812736E+02 -0.15145964752E+02  0.15146314832E+02  0.17443258988E+03  0.17120000000E+03 0.  0.
        998    1    1    2    0    0 -0.87803130213E+01  0.23673857947E+01  0.14338380989E+04  0.14339018070E+04  0.10000000000E+02 0. -1.
</event>
<event>
 5    1  0.1360042E-008  0.3839043E+03  0.7957747E-01  0.3434332E+00
         13   -1    0    0    0    0  0.00000000000E+00  0.00000000000E+00  0.14999999963E+04  0.15000000000E+04  0.10566000000E+00 0. -1.
        994   -1    0    0    0    0 -0.00000000000E+00 -0.00000000000E+00  0.11368683772E-12  0.17120000000E+03  0.17120000000E+03 0.  0.
         13    1    1    2    0    0  0.17284890999E+02 -0.21260611017E+02  0.14562308462E+03  0.14817852400E+03  0.10566000000E+00 0. -1.
        994    1    1    2    0    0 -0.29669411292E+02  0.23795535549E+02  0.69637640432E+01  0.17551192406E+03  0.17120000000E+03 0.  0.
        998    1    1    2    0    0  0.12384520293E+02 -0.25349245325E+01  0.13474131476E+04  0.13475095519E+04  0.10000000000E+02 0. -1.
</event>
<event>
 5    1  0.1360042E-008  0.3207977E+03  0.7957747E-01  0.3757888E+00
         13   -1    0    0    0    0  0.00000000000E+00  0.00000000000E+00  0.14999999963E+04  0.15000000000E+04  0.10566000000E+00 0. -1.
        994   -1    0    0    0    0 -0.00000000000E+00 -0.00000000000E+00  0.11368683772E-12  0.17120000000E+03  0.17120000000E+03 0.  0.
         13    1    1    2    0    0 -0.16562701883E+03 -0.51690027530E+02  0.86158730320E+03  0.87888387203E+03  0.10566000000E+00 0. -1.
        994    1    1    2    0    0  0.13162168217E+03  0.60025386829E+02  0.88144895726E+02  0.24084492297E+03  0.17120000000E+03 0.  0.
        998    1    1    2    0    0  0.34005336669E+02 -0.83353592987E+01  0.55026779735E+03  0.55147120500E+03  0.10000000000E+02 0. -1.
</event>
<event>
 5    1  0.1360042E-008  0.3853127E+03  0.7957747E-01  0.3428347E+00
         13   -1    0    0    0    0  0.00000000000E+00  0.00000000000E+00  0.14999999963E+04  0.15000000000E+04  0.10566000000E+00 0.  1.
        994   -1    0    0    0    0 -0.00000000000E+00 -0.00000000000E+00  0.11368683772E-12  0.17120000000E+03  0.17120000000E+03 0.  0.
         13    1    1    2    0    0 -0.14425034403E+02  0.31985811081E+01  0.71151156228E+02  0.72669186972E+02  0.10566000000E+00 0.  1.
        994    1    1    2    0    0  0.15479895753E+02 -0.35269674987E+01  0.23035344662E+01  0.17195003037E+03  0.17120000000E+03 0.  0.
        998    1    1    2    0    0 -0.10548613499E+01  0.32838639054E+00  0.14265453056E+04  0.14265807827E+04  0.10000000000E+02 0.  1.
</event>
<event>
 5    1  0.1360042E-008  0.3857203E+03  0.7957747E-01  0.3426623E+00
         13   -1    0    0    0    0  0.00000000000E+00  0.00000000000E+00  0.14999999963E+04  0.15000000000E+04  0.10566000000E+00 0. -1.
        994   -1    0    0    0    0 -0.00000000000E+00 -0.00000000000E+00  0.11368683772E-12  0.17120000000E+03  0.17120000000E+03 0.  0.
         13    1    1    2    0    0  0.11019585508E+02  0.72236327462E+00  0.54907296860E+02  0.56006923554E+02  0.10566000000E+00 0. -1.
        994    1    1    2    0    0  0.11822198286E+02  0.63873517182E-01  0.17316561289E+01  0.17161645342E+03  0.17120000000E+03 0.  0.
        998    1    1    2    0    0 -0.22841783795E+02 -0.78623679180E+00  0.14433610433E+04  0.14435766230E+04  0.10000000000E+02 0. -1.
</event>
<event>
 5    1  0.1360042E-008  0.2062848E+03  0.7957747E-01  0.4927049E+00
         13   -1    0    0    0    0  0.00000000000E+00  0.00000000000E+00  0.14999999963E+04  0.15000000000E+04  0.10566000000E+00 0.  1.
        994   -1    0    0    0    0 -0.00000000000E+00 -0.00000000000E+00  0.11368683772E-12  0.17120000000E+03  0.17120000000E+03 0.  0.
         13    1    1    2    0    0 -0.39088111152E+02 -0.13307869567E+03  0.10561167168E+03  0.17433202813E+03  0.10566000000E+00 0.  1.
        994    1    1    2    0    0  0.37039555551E+02  0.12507242189E+03  0.17496491996E+03  0.27737556239E+03  0.17120000000E+03 0.  0.
        998    1    1    2    0    0  0.20485556010E+01  0.80062737830E+01  0.12194234046E+04  0.12194924095E+04  0.10000000000E+02 0.  0.
</event>
<event>
 5    1  0.1729720E-008  0.3860520E+03  0.7957747E-01  0.3425223E+00
         13   -1    0    0    0    0  0.00000000000E+00  0.00000000000E+00  0.14999999963E+04  0.15000000000E+04  0.10566000000E+00 0. -1.
        994   -1    0    0    0    0 -0.00000000000E+00 -0.00000000000E+00  0.11368683772E-12  0.17120000000E+03  0.17120000000E+03 0.  0.
         13    1    1    2    0    0  0.65471523658E+01  0.11430135296E+02  0.76638168399E+02  0.77762029401E+02  0.10566000000E+00 0. -1.
        994    1    1    2    0    0 -0.41833461859E+01 -0.12223573858E+02  0.16559951765E+01  0.17169478287E+03  0.17120000000E+03 0.  0.
        998    1    1    2    0    0 -0.23638061799E+01  0.79343856248E+00  0.14217058327E+04  0.14217431877E+04  0.10000000000E+02 0.  0.
</event>
<event>
 5    1  0.1360042E-008  0.3842082E+03  0.7957747E-01  0.3433037E+00
         13   -1    0    0    0    0  0.00000000000E+00  0.00000000000E+00  0.14999999963E+04  0.15000000000E+04  0.10566000000E+00 0.  1.
        994   -1    0    0    0    0 -0.00000000000E+00 -0.00000000000E+00  0.11368683772E-12  0.17120000000E+03  0.17120000000E+03 0.  0.
         13    1    1    2    0    0 -0.25134681272E+01  0.11618886126E+02  0.34120962447E+02  0.36132634545E+02  0.10566000000E+00 0.  1.
        994    1    1    2    0    0  0.10204301064E+02 -0.82438279411E+01  0.25913527482E+01  0.17172141267E+03  0.17120000000E+03 0.  0.
        998    1    1    2    0    0 -0.76908329369E+01 -0.33750581852E+01  0.14632876811E+04  0.14633459528E+04  0.10000000000E+02 0.  1.
</event>
<event>
 5    1  0.1360042E-008  0.3730620E+03  0.7957747E-01  0.3481936E+00
         13   -1    0    0    0    0  0.00000000000E+00  0.00000000000E+00  0.14999999963E+04  0.15000000000E+04  0.10566000000E+00 0. -1.
        994   -1    0    0    0    0 -0.00000000000E+00 -0.00000000000E+00  0.11368683772E-12  0.17120000000E+03  0.17120000000E+03 0.  0.
         13    1    1    2    0    0  0.66871333147E+02 -0.13082076565E+03  0.82348330600E+03  0.83648706765E+03  0.10566000000E+00 0. -1.
        994    1    1    2    0    0 -0.37692918168E+02  0.12579383930E+03  0.69195775120E+02  0.22658848466E+03  0.17120000000E+03 0.  0.
        998    1    1    2    0    0 -0.29178414978E+02  0.50269263485E+01  0.60732091516E+03  0.60812444769E+03  0.10000000000E+02 0.  1.
</event>
<event>
 5    1  0.1360042E-008  0.3829840E+03  0.7957747E-01  0.3438268E+00
         13   -1    0    0    0    0  0.00000000000E+00  0.00000000000E+00  0.14999999963E+04  0.15000000000E+04  0.10566000000E+00 0.  1.
        994   -1    0    0    0    0 -0.00000000000E+00 -0.00000000000E+00  0.11368683772E-12  0.17120000000E+03  0.17120000000E+03 0.  0.
         13    1    1    2    0    0 -0.68396831206E+01 -0.11315841265E+02  0.32800175985E+02  0.35365127420E+02  0.10566000000E+00 0.  1.
        994    1    1    2    0    0  0.13849336222E+02 -0.25291781716E+01  0.32907504215E+01  0.17180939990E+03  0.17120000000E+03 0.  0.
        998    1    1    2    0    0 -0.70096531014E+01  0.13845019437E+02  0.14639090699E+04  0.14640254727E+04  0.10000000000E+02 0.  1.
</event>
<event>
 5    1  0.1360042E-008  0.3775852E+03  0.7957747E-01  0.3461741E+00
         13   -1    0    0    0    0  0.00000000000E+00  0.00000000000E+00  0.14999999963E+04  0.15000000000E+04  0.10566000000E+00 0. -1.
        994   -1    0    0    0    0 -0.00000000000E+00 -0.00000000000E+00  0.11368683772E-12  0.17120000000E+03  0.17120000000E+03 0.  0.
         13    1    1    2    0    0  0.14725113504E+02  0.60570702473E+02  0.12590693693E+03  0.14049272898E+03  0.10566000000E+00 0. -1.
        994    1    1    2    0    0  0.25148756449E+02 -0.44256641016E+02  0.24372749940E+02  0.18026253400E+03  0.17120000000E+03 0.  0.
        998    1    1    2    0    0 -0.39873869953E+02 -0.16314061457E+02  0.13497203094E+04  0.13504447370E+04  0.10000000000E+02 0. -1.
</event>
<event>
 5    1  0.1360042E-008  0.3816761E+03  0.7957747E-01  0.3443893E+00
         13   -1    0    0    0    0  0.00000000000E+00  0.00000000000E+00  0.14999999963E+04  0.15000000000E+04  0.10566000000E+00 0. -1.
        994   -1    0    0    0    0 -0.00000000000E+00 -0.00000000000E+00  0.11368683772E-12  0.17120000000E+03  0.17120000000E+03 0.  0.
         13    1    1    2    0    0 -0.20400366736E+01 -0.14957709985E+02  0.32909932094E+02  0.36207314621E+02  0.10566000000E+00 0. -1.
        994    1    1    2    0    0  0.13690413083E+01  0.14661482793E+02  0.40106435832E+01  0.17187890683E+03  0.17120000000E+03 0.  0.
        998    1    1    2    0    0  0.67099536523E+00  0.29622719232E+00  0.14630794206E+04  0.14631137785E+04  0.10000000000E+02 0.  0.
</event>
<event>
 5    1  0.1360042E-008  0.3807952E+03  0.7957747E-01  0.3447703E+00
         13   -1    0    0    0    0  0.00000000000E+00  0.00000000000E+00  0.14999999963E+04  0.15000000000E+04  0.10566000000E+00 0.  1.
        994   -1    0    0    0    0 -0.00000000000E+00 -0.00000000000E+00  0.11368683772E-12  0.17120000000E+03  0.17120000000E+03 0.  0.
         13    1    1    2    0    0 -0.12211902537E+02  0.21914198947E+02  0.85910574076E+02  0.89498606588E+02  0.10566000000E+00 0.  1.
        994    1    1    2    0    0 -0.42054645770E+01 -0.12465072574E+02  0.43095179299E+01  0.17175877244E+03  0.17120000000E+03 0.  0.
        998    1    1    2    0    0  0.16417367114E+02 -0.94491263725E+01  0.14097799043E+04  0.14099426210E+04  0.10000000000E+02 0.  1.
</event>
<event>
 5    1  0.1360042E-008  0.3839970E+03  0.7957747E-01  0.3433937E+00
         13   -1    0    0    0    0  0.00000000000E+00  0.00000000000E+00  0.14999999963E+04  0.15000000000E+04  0.10566000000E+00 0. -1.
        994   -1    0    0    0    0 -0.00000000000E+00 -0.00000000000E+00  0.11368683772E-12  0.17120000000E+03  0.17120000000E+03 0.  0.
         13    1    1    2    0    0  0.29706936935E+01  0.22066340526E+02  0.10972213866E+03  0.11195850696E+03  0.10566000000E+00 0. -1.
        994    1    1    2    0    0 -0.64982566546E+01 -0.20875659096E+02  0.37076847786E+01  0.17263026215E+03  0.17120000000E+03 0.  0.
        998    1    1    2    0    0  0.35275629611E+01 -0.11906814298E+01  0.13865701728E+04  0.13866112309E+04  0.10000000000E+02 0. -1.
</event>
<event>
 5    1  0.1360042E-008  0.3821275E+03  0.7957747E-01  0.3441947E+00
         13   -1    0    0    0    0  0.00000000000E+00  0.00000000000E+00  0.14999999963E+04  0.15000000000E+04  0.10566000000E+00 0. -1.
        994   -1    0    0    0    0 -0.00000000000E+00 -0.00000000000E+00  0.11368683772E-12  0.17120000000E+03  0.17120000000E+03 0.  0.
         13    1    1    2    0    0  0.10500929685E+02 -0.26346576533E+02  0.13745776069E+03  0.14035333540E+03  0.10566000000E+00 0. -1.
        994    1    1    2    0    0 -0.39979015824E+01  0.84704766615E+01  0.33543012669E+01  0.17148884374E+03  0.17120000000E+03 0.  0.
        998    1    1    2    0    0 -0.65030281023E+01  0.17876099872E+02  0.13591879343E+04  0.13593578209E+04  0.10000000000E+02 0. -1.
</event>
<event>
 5    1  0.1360042E-008  0.3842964E+03  0.7957747E-01  0.3432662E+00
         13   -1    0    0    0    0  0.00000000000E+00  0.00000000000E+00  0.14999999963E+04  0.15000000000E+04  0.10566000000E+00 0.  1.
        994   -1    0    0    0    0 -0.00000000000E+00 -0.00000000000E+00  0.11368683772E-12  0.17120000000E+03  0.17120000000E+03 0.  0.
         13    1    1    2    0    0 -0.17030994777E+02 -0.42852506957E+01  0.78438765306E+02  0.80380776454E+02  0.10566000000E+00 0.  1.
        994    1    1    2    0    0  0.82244245998E+01  0.67686215476E+01  0.23539171710E+01  0.17154718396E+03  0.17120000000E+03 0.  0.
        998    1    1    2    0    0  0.88065701776E+01 -0.24833708520E+01  0.14192073138E+04  0.14192720396E+04  0.10000000000E+02 0.  1.
</event>
<event>
 5    1  0.1360042E-008  0.3808377E+03  0.7957747E-01  0.3447519E+00
         13   -1    0    0    0    0  0.00000000000E+00  0.00000000000E+00  0.14999999963E+04  0.15000000000E+04  0.10566000000E+00 0. -1.
        994   -1    0    0    0    0 -0.00000000000E+00 -0.00000000000E+00  0.11368683772E-12  0.17120000000E+03  0.17120000000E+03 0.  0.
         13    1    1    2    0    0  0.67769982221E+01 -0.98368545836E+01  0.17777380041E+02  0.21418165612E+02  0.10566000000E+00 0. -1.
        994    1    1    2    0    0 -0.69389001403E+01  0.30359093509E+01  0.39021332003E+01  0.17141187743E+03  0.17120000000E+03 0.  0.
        998    1    1    2    0    0  0.16190191822E+00  0.68009452327E+01  0.14783204830E+04  0.14783699570E+04  0.10000000000E+02 0. -1.
</event>
<event>
 5    1  0.1360042E-008  0.3831319E+03  0.7957747E-01  0.3437634E+00
         13   -1    0    0    0    0  0.00000000000E+00  0.00000000000E+00  0.14999999963E+04  0.15000000000E+04  0.10566000000E+00 0.  1.
        994   -1    0    0    0    0 -0.00000000000E+00 -0.00000000000E+00  0.11368683772E-12  0.17120000000E+03  0.17120000000E+03 0.  0.
         13    1    1    2    0    0 -0.17573869750E+01 -0.15424909755E+02  0.45121153875E+02  0.47717354714E+02  0.10566000000E+00 0.  1.
        994    1    1    2    0    0  0.38209250176E+01  0.15915903747E+02  0.34474278842E+01  0.17201523252E+03  0.17120000000E+03 0.  0.
        998    1    1    2    0    0 -0.20635380426E+01 -0.49099399226E+00  0.14514314145E+04  0.14514674128E+04  0.10000000000E+02 0.  1.
</event>
<event>
 5    1  0.1360042E-008  0.3725150E+03  0.7957747E-01  0.3484412E+00
         13   -1    0    0    0    0  0.00000000000E+00  0.00000000000E+00  0.14999999963E+04  0.15000000000E+04  0.10566000000E+00 0.  1.
        994   -1    0    0    0    0 -0.00000000000E+00 -0.00000000000E+00  0.11368683772E-12  0.17120000000E+03  0.17120000000E+03 0.  0.
         13    1    1    2    0    0 -0.32427483695E+02  0.16028219795E+02  0.82744765557E+02  0.90305885300E+02  0.10566000000E+00 0.  1.
        994    1    1    2    0    0  0.74060031120E+01 -0.10165594162E+02  0.85028208721E+01  0.17187183059E+03  0.17120000000E+03 0.  0.
        998    1    1    2    0    0  0.25021480583E+02 -0.58626256334E+01  0.14087524098E+04  0.14090222841E+04  0.10000000000E+02 0.  1.
</event>
<event>
 5    1  0.1360042E-008  0.3841723E+03  0.7957747E-01  0.3433190E+00
         13   -1    0    0    0    0  0.00000000000E+00  0.00000000000E+00  0.14999999963E+04  0.15000000000E+04  0.10566000000E+00 0.  1.
        994   -1    0    0    0    0 -0.00000000000E+00 -0.00000000000E+00  0.11368683772E-12  0.17120000000E+03  0.17120000000E+03 0.  0.
         13    1    1    2    0    0  0.12069109175E+02  0.16500540533E+02  0.95142446501E+02  0.97314066426E+02  0.10566000000E+00 0.  1.
        994    1    1    2    0    0  0.42858152874E+01 -0.32602261689E+02  0.56153030279E+01  0.17441974460E+03  0.17120000000E+03 0.  0.
        998    1    1    2    0    0 -0.16354924463E+02  0.16101721156E+02  0.13992422467E+04  0.13994661890E+04  0.10000000000E+02 0.  1.
</event>
<event>
 5    1  0.1360042E-008  0.3718585E+03  0.7957747E-01  0.3487393E+00
         13   -1    0    0    0    0  0.00000000000E+00  0.00000000000E+00  0.14999999963E+04  0.15000000000E+04  0.10566000000E+00 0. -1.
        994   -1    0    0    0    0 -0.00000000000E+00 -0.00000000000E+00  0.11368683772E-12  0.17120000000E+03  0.17120000000E+03 0.  0.
         13    1    1    2    0    0 -0.40324037852E+01  0.21306960590E+02  0.14285372998E+02  0.25967862746E+02  0.10566000000E+00 0. -1.
        994    1    1    2    0    0  0.14000765072E+02 -0.21659223181E+02  0.14268972998E+02  0.17371870067E+03  0.17120000000E+03 0.  0.
        998    1    1    2    0    0 -0.99683612871E+01  0.35226259130E+00  0.14714456503E+04  0.14715134366E+04  0.10000000000E+02 0. -1.
</event>
<event>
 5    1  0.1360042E-008  0.3778013E+03  0.7957747E-01  0.3460788E+00
         13   -1    0    0    0    0  0.00000000000E+00  0.00000000000E+00  0.14999999963E+04  0.15000000000E+04  0.10566000000E+00 0.  1.
        994   -1    0    0    0    0 -0.00000000000E+00 -0.00000000000E+00  0.11368683772E-12  0.17120000000E+03  0.17120000000E+03 0.  0.
         13    1    1    2    0    0 -0.10610342160E+02  0.15367098013E+02  0.33060186938E+02  0.37969911595E+02  0.10566000000E+00 0.  1.
        994    1    1    2    0    0 -0.61997106231E+01  0.55867431836E+01  0.54817222868E+01  0.17149092510E+03  0.17120000000E+03 0.  0.
        998    1    1    2    0    0  0.16810052783E+02 -0.20953841197E+02  0.14614580871E+04  0.14617391633E+04  0.10000000000E+02 0.  1.
</event>
<event>
 5    1  0.1360042E-008  0.3818072E+03  0.7957747E-01  0.3443327E+00
         13   -1    0    0    0    0  0.00000000000E+00  0.00000000000E+00  0.14999999963E+04  0.15000000000E+04  0.10566000000E+00 0. -1.
        994   -1    0    0    0    0 -0.00000000000E+00 -0.00000000000E+00  0.11368683772E-12  0.17120000000E+03  0.17120000000E+03 0.  0.
         13    1    1    2    0    0  0.29483291674E+02 -0.56406181912E+00  0.12516398907E+03  0.12859089383E+03  0.10566000000E+00 0. -1.
        994    1    1    2    0    0 -0.28168122327E+02  0.16537853826E+02  0.67772711224E+01  0.17441993902E+03  0.17120000000E+03 0.  0.
        998    1    1    2    0    0 -0.13151693462E+01 -0.15973792007E+02  0.13680587361E+04  0.13681891671E+04  0.10000000000E+02 0. -1.
</event>
<event>
 5    1  0.1360042E-008  0.3835501E+03  0.7957747E-01  0.3435845E+00
         13   -1    0    0    0    0  0.00000000000E+00  0.00000000000E+00  0.14999999963E+04  0.15000000000E+04  0.10566000000E+00 0.  1.
        994   -1    0    0    0    0 -0.00000000000E+00 -0.00000000000E+00  0.11368683772E-12  0.17120000000E+03  0.17120000000E+03 0.  0.
         13    1    1    2    0    0 -0.10006191035E+02  0.64433029009E+01  0.30236767108E+02  0.32494818980E+02  0.10566000000E+00 0.  1.
        994    1    1    2    0    0 -0.17665354506E+01 -0.38558894163E+01  0.24111302233E+01  0.17126950131E+03  0.17120000000E+03 0.  0.
        998    1    1    2    0    0  0.11772726486E+02 -0.25874134846E+01  0.14673520989E+04  0.14674356797E+04  0.10000000000E+02 0.  1.
</event>
<event>
 5    1  0.1360042E-008  0.3834062E+03  0.7957747E-01  0.3436460E+00
         13   -1    0    0    0    0  0.00000000000E+00  0.00000000000E+00  0.14999999963E+04  0.15000000000E+04  0.10566000000E+00 0. -1.
        994   -1    0    0    0    0 -0.00000000000E+00 -0.00000000000E+00  0.11368683772E-12  0.17120000000E+03  0.17120000000E+03 0.  0.
         13    1    1    2    0    0 -0.20703291402E+02 -0.17608758071E+02  0.15104065147E+03  0.15346655726E+03  0.10566000000E+00 0. -1.
        994    1    1    2    0    0  0.25600545563E+02 -0.31270906733E+01  0.46254585391E+01  0.17319353769E+03  0.17120000000E+03 0.  0.
        998    1    1    2    0    0 -0.48972541605E+01  0.20735848745E+02  0.13443338863E+04  0.13445399051E+04  0.10000000000E+02 0. -1.
</event>
<event>
 5    1  0.1360042E-008  0.3767458E+03  0.7957747E-01  0.3465452E+00
         13   -1    0    0    0    0  0.00000000000E+00  0.00000000000E+00  0.14999999963E+04  0.15000000000E+04  0.10566000000E+00 0.  1.
        994   -1    0    0    0    0 -0.00000000000E+00 -0.00000000000E+00  0.11368683772E-12  0.17120000000E+03  0.17120000000E+03 0.  0.
         13    1    1    2    0    0 -0.15089217940E+03 -0.68146339638E+02  0.72896971984E+03  0.74753544198E+03  0.10566000000E+00 0.  1.
        994    1    1    2    0    0  0.17124924657E+03  0.76972732796E+02  0.13605166247E+03  0.28821970943E+03  0.17120000000E+03 0.  0.
        998    1    1    2    0    0 -0.20357067169E+02 -0.88263931581E+01  0.63497861397E+03  0.63544484859E+03  0.10000000000E+02 0.  1.
</event>
<event>
 5    1  0.1360042E-008  0.3896352E+03  0.7957747E-01  0.3410249E+00
         13   -1    0    0    0    0  0.00000000000E+00  0.00000000000E+00  0.14999999963E+04  0.15000000000E+04  0.10566000000E+00 0.  1.
        994   -1    0    0    0    0 -0.00000000000E+00 -0.00000000000E+00  0.11368683772E-12  0.17120000000E+03  0.17120000000E+03 0.  0.
         13    1    1    2    0    0  0.63405254556E+02  0.11020758799E+03  0.34919924007E+03  0.37162623587E+03  0.10566000000E+00 0.  1.
        994    1    1    2    0    0 -0.33006195266E+02 -0.80138478708E+02  0.50533365107E+02  0.19843045554E+03  0.17120000000E+03 0.  0.
        998    1    1    2    0    0 -0.30399059290E+02 -0.30069109285E+02  0.11002673911E+04  0.11011433086E+04  0.10000000000E+02 0.  1.
</event>
<event>
 5    1  0.1360042E-008  0.3853818E+03  0.7957747E-01  0.3428055E+00
         13   -1    0    0    0    0  0.00000000000E+00  0.00000000000E+00  0.14999999963E+04  0.15000000000E+04  0.10566000000E+00 0.  1.
        994   -1    0    0    0    0 -0.00000000000E+00 -0.00000000000E+00  0.11368683772E-12  0.17120000000E+03  0.17120000000E+03 0.  0.
         13    1    1    2    0    0 -0.65275500895E+01  0.14869926095E+02  0.96191964796E+02  0.97553210442E+02  0.10566000000E+00 0.  1.
        994    1    1    2    0    0  0.42826715714E+01 -0.34867373854E+01  0.15408759838E+01  0.17129598043E+03  0.17120000000E+03 0.  0.
        998    1    1    2    0    0  0.22448785181E+01 -0.11383188709E+02  0.14022671555E+04  0.14023508091E+04  0.10000000000E+02 0.  1.
</event>
<event>
 5    1  0.1360042E-008  0.3862811E+03  0.7957747E-01  0.3424257E+00
         13   -1    0    0    0    0  0.00000000000E+00  0.00000000000E+00  0.14999999963E+04  0.15000000000E+04  0.10566000000E+00 0. -1.
        994   -1    0    0    0    0 -0.00000000000E+00 -0.00000000000E+00  0.11368683772E-12  0.17120000000E+03  0.17120000000E+03 0.  0.
         13    1    1    2    0    0 -0.17405268453E+01 -0.13524578508E+02  0.81479718460E+02  0.82612948997E+02  0.10566000000E+00 0. -1.
        994    1    1    2    0    0 -0.76598246555E+01  0.27778810110E+02  0.37195454189E+01  0.17364794909E+03  0.17120000000E+03 0.  0.
        998    1    1    2    0    0  0.94003515008E+01 -0.14254231602E+02  0.14148007324E+04  0.14149391019E+04  0.10000000000E+02 0. -1.
</event>
<event>
 5    1  0.1360042E-008  0.3832451E+03  0.7957747E-01  0.3437149E+00
         13   -1    0    0    0    0  0.00000000000E+00  0.00000000000E+00  0.14999999963E+04  0.15000000000E+04  0.10566000000E+00 0. -1.
        994   -1    0    0    0    0 -0.00000000000E+00 -0.00000000000E+00  0.11368683772E-12  0.17120000000E+03  0.17120000000E+03 0.  0.
         13    1    1    2    0    0 -0.53955778997E+01  0.98107151729E+01  0.23704625458E+02  0.26216079516E+02  0.10566000000E+00 0. -1.
        994    1    1    2    0    0  0.56662047478E+01 -0.12260308536E+02  0.31075097202E+01  0.17176005839E+03  0.17120000000E+03 0.  0.
        998    1    1    2    0    0 -0.27062684816E+00  0.24495933636E+01  0.14731878611E+04  0.14732238621E+04  0.10000000000E+02 0. -1.
</event>
<event>
 5    1  0.1360042E-008  0.3837278E+03  0.7957747E-01  0.3435086E+00
         13   -1    0    0    0    0  0.00000000000E+00  0.00000000000E+00  0.14999999963E+04  0.15000000000E+04  0.10566000000E+00 0.  1.
        994   -1    0    0    0    0 -0.00000000000E+00 -0.00000000000E+00  0.11368683772E-12  0.17120000000E+03  0.17120000000E+03 0.  0.
         13    1    1    2    0    0  0.16293826249E+02 -0.94680711940E+00  0.57522215308E+02  0.59792989853E+02  0.10566000000E+00 0.  1.
        994    1    1    2    0    0 -0.14151145639E+02 -0.11231990585E+02  0.33417377695E+01  0.17218309948E+03  0.17120000000E+03 0.  0.
        998    1    1    2    0    0 -0.21426806100E+01  0.12178797705E+02  0.14391360432E+04  0.14392239107E+04  0.10000000000E+02 0.  1.
</event>
<event>
 5    1  0.1360042E-008  0.3843484E+03  0.7957747E-01  0.3432440E+00
         13   -1    0    0    0    0  0.00000000000E+00  0.00000000000E+00  0.14999999963E+04  0.15000000000E+04  0.10566000000E+00 0. -1.
        994   -1    0    0    0    0 -0.00000000000E+00 -0.00000000000E+00  0.11368683772E-12  0.17120000000E+03  0.17120000000E+03 0.  0.
         13    1    1    2    0    0 -0.18083609636E+02 -0.77038608198E+01  0.99209943752E+02  0.10113847197E+03  0.10566000000E+00 0. -1.
        994    1    1    2    0    0  0.10580981931E+02  0.46096626330E+01  0.23931110906E+01  0.17160528299E+03  0.17120000000E+03 0.  0.
        998    1    1    2    0    0  0.75026277042E+01  0.30941981867E+01  0.13983969414E+04  0.13984562450E+04  0.10000000000E+02 0. -1.
</event>
<event>
 5    1  0.1360042E-008  0.3876699E+03  0.7957747E-01  0.3418427E+00
         13   -1    0    0    0    0  0.00000000000E+00  0.00000000000E+00  0.14999999963E+04  0.15000000000E+04  0.10566000000E+00 0. -1.
        994   -1    0    0    0    0 -0.00000000000E+00 -0.00000000000E+00  0.11368683772E-12  0.17120000000E+03  0.17120000000E+03 0.  0.
         13    1    1    2    0    0 -0.11837850922E+02  0.50412828950E+01 -0.54726764359E+01  0.13982510471E+02  0.10566000000E+00 0. -1.
        994    1    1    2    0    0  0.12999164305E+02 -0.15320733891E+02  0.22112490311E+02  0.17378752944E+03  0.17120000000E+03 0.  0.
        998    1    1    2    0    0 -0.11613133831E+01  0.10279450996E+02  0.14833601824E+04  0.14834299601E+04  0.10000000000E+02 0. -1.
</event>
<event>
 5    1  0.1360042E-008  0.3804640E+03  0.7957747E-01  0.3449140E+00
         13   -1    0    0    0    0  0.00000000000E+00  0.00000000000E+00  0.14999999963E+04  0.15000000000E+04  0.10566000000E+00 0. -1.
        994   -1    0    0    0    0 -0.00000000000E+00 -0.00000000000E+00  0.11368683772E-12  0.17120000000E+03  0.17120000000E+03 0.  0.
         13    1    1    2    0    0  0.85110368928E+01  0.12806296408E+02  0.27886825734E+02  0.31845332315E+02  0.10566000000E+00 0. -1.
        994    1    1    2    0    0 -0.12674422478E+02 -0.16533581823E+02  0.53490336833E+01  0.17254579819E+03  0.17120000000E+03 0.  0.
        998    1    1    2    0    0  0.41633855856E+01  0.37272854147E+01  0.14667641369E+04  0.14668088695E+04  0.10000000000E+02 0. -1.
</event>
<event>
 5    1  0.1360042E-008  0.3737949E+03  0.7957747E-01  0.3478630E+00
         13   -1    0    0    0    0  0.00000000000E+00  0.00000000000E+00  0.14999999963E+04  0.15000000000E+04  0.10566000000E+00 0.  1.
        994   -1    0    0    0    0 -0.00000000000E+00 -0.00000000000E+00  0.11368683772E-12  0.17120000000E+03  0.17120000000E+03 0.  0.
         13    1    1    2    0    0 -0.88428488362E+02  0.94818303496E+02  0.72754514041E+03  0.73900747677E+03  0.10566000000E+00 0.  1.
        994    1    1    2    0    0  0.57575064305E+02 -0.10405037907E+03  0.57215055602E+02  0.21615821058E+03  0.17120000000E+03 0.  0.
        998    1    1    2    0    0  0.30853424057E+02  0.92320755751E+01  0.71523980027E+03  0.71603431265E+03  0.10000000000E+02 0.  1.
</event>
<event>
 5    1  0.1360042E-008  0.3810747E+03  0.7957747E-01  0.3446492E+00
         13   -1    0    0    0    0  0.00000000000E+00  0.00000000000E+00  0.14999999963E+04  0.15000000000E+04  0.10566000000E+00 0. -1.
        994   -1    0    0    0    0 -0.00000000000E+00 -0.00000000000E+00  0.11368683772E-12  0.17120000000E+03  0.17120000000E+03 0.  0.
         13    1    1    2    0    0  0.13591434857E+03 -0.19191371186E+02  0.82590258789E+03  0.83723121939E+03  0.10566000000E+00 0. -1.
        994    1    1    2    0    0 -0.14861272170E+03  0.14480629115E+02  0.81820770033E+02  0.24145291068E+03  0.17120000000E+03 0.  0.
        998    1    1    2    0    0  0.12698373131E+02  0.47107420716E+01  0.59227663835E+03  0.59251586992E+03  0.10000000000E+02 0. -1.
</event>
<event>
 5    1  0.1360042E-008  0.3741460E+03  0.7957747E-01  0.3477051E+00
         13   -1    0    0    0    0  0.00000000000E+00  0.00000000000E+00  0.14999999963E+04  0.15000000000E+04  0.10566000000E+00 0. -1.
        994   -1    0    0    0    0 -0.00000000000E+00 -0.00000000000E+00  0.11368683772E-12  0.17120000000E+03  0.17120000000E+03 0.  0.
         13    1    1    2    0    0 -0.23298048751E+02 -0.25742484304E+02  0.42378745957E+02  0.54785434622E+02  0.10566000000E+00 0. -1.
        994    1    1    2    0    0  0.12770360803E+02  0.32925152535E+00  0.13727189345E+02  0.17222388408E+03  0.17120000000E+03 0.  0.
        998    1    1    2    0    0  0.10527687948E+02  0.25413232779E+02  0.14438940610E+04  0.14441906813E+04  0.10000000000E+02 0. -1.
</event>
<event>
 5    1  0.1360042E-008  0.3781585E+03  0.7957747E-01  0.3459216E+00
         13   -1    0    0    0    0  0.00000000000E+00  0.00000000000E+00  0.14999999963E+04  0.15000000000E+04  0.10566000000E+00 0. -1.
        994   -1    0    0    0    0 -0.00000000000E+00 -0.00000000000E+00  0.11368683772E-12  0.17120000000E+03  0.17120000000E+03 0.  0.
         13    1    1    2    0    0  0.94997988868E+02 -0.47762920449E+02  0.56097985251E+03  0.57096788049E+03  0.10566000000E+00 0. -1.
        994    1    1    2    0    0 -0.12367296669E+03  0.27857273757E+02  0.61175606301E+02  0.22163692201E+03  0.17120000000E+03 0.  0.
        998    1    1    2    0    0  0.28674977820E+02  0.19905646692E+02  0.87784453747E+03  0.87859519751E+03  0.10000000000E+02 0.  1.
</event>
<event>
 5    1  0.1360042E-008  0.3845120E+03  0.7957747E-01  0.3431744E+00
         13   -1    0    0    0    0  0.00000000000E+00  0.00000000000E+00  0.14999999963E+04  0.15000000000E+04  0.10566000000E+00 0. -1.
        994   -1    0    0    0    0 -0.00000000000E+00 -0.00000000000E+00  0.11368683772E-12  0.17120000000E+03  0.17120000000E+03 0.  0.
         13    1    1    2    0    0 -0.37464766061E+01  0.10852537685E+02  0.35577065841E+02  0.37383852651E+02  0.10566000000E+00 0. -1.
        994    1    1    2    0    0 -0.29557692828E+01 -0.42266062070E+01  0.19602265201E+01  0.17128888831E+03  0.17120000000E+03 0.  0.
        998    1    1    2    0    0  0.67022458888E+01 -0.66259314776E+01  0.14624627039E+04  0.14625272590E+04  0.10000000000E+02 0. -1.
</event>
<event>
 5    1  0.1360042E-008  0.2552367E+03  0.7957747E-01  0.4278519E+00
         13   -1    0    0    0    0  0.00000000000E+00  0.00000000000E+00  0.14999999963E+04  0.15000000000E+04  0.10566000000E+00 0.  1.
        994   -1    0    0    0    0 -0.00000000000E+00 -0.00000000000E+00  0.11368683772E-12  0.17120000000E+03  0.17120000000E+03 0.  0.
         13    1    1    2    0    0 -0.16925564704E+03  0.49867230925E+01  0.35915055885E+03  0.39706608587E+03  0.10566000000E+00 0.  1.
        994    1    1    2    0    0  0.15335950216E+03 -0.63446357839E+02  0.15067708506E+03  0.28205957028E+03  0.17120000000E+03 0.  0.
        998    1    1    2    0    0  0.15896144880E+02  0.58459634747E+02  0.99017235238E+03  0.99207434385E+03  0.10000000000E+02 0.  1.
</event>
<event>
 5    1  0.1360042E-008  0.3813289E+03  0.7957747E-01  0.3445393E+00
         13   -1    0    0    0    0  0.00000000000E+00  0.00000000000E+00  0.14999999963E+04  0.15000000000E+04  0.10566000000E+00 0. -1.
        994   -1    0    0    0    0 -0.00000000000E+00 -0.00000000000E+00  0.11368683772E-12  0.17120000000E+03  0.17120000000E+03 0.  0.
         13    1    1    2    0    0 -0.19625007657E+02 -0.24714077374E+02  0.13757626754E+03  0.14114944952E+03  0.10566000000E+00 0. -1.
        994    1    1    2    0    0  0.51177320016E+02 -0.66029039256E+01  0.12377412151E+02  0.17923547851E+03  0.17120000000E+03 0.  0.
        998    1    1    2    0    0 -0.31552312359E+02  0.31316981300E+02  0.13500463166E+04  0.13508150720E+04  0.10000000000E+02 0. -1.
</event>
<event>
 5    1  0.1360042E-008  0.3848649E+03  0.7957747E-01  0.3430245E+00
         13   -1    0    0    0    0  0.00000000000E+00  0.00000000000E+00  0.14999999963E+04  0.15000000000E+04  0.10566000000E+00 0.  1.
        994   -1    0    0    0    0 -0.00000000000E+00 -0.00000000000E+00  0.11368683772E-12  0.17120000000E+03  0.17120000000E+03 0.  0.
         13    1    1    2    0    0  0.16736469745E+01 -0.16707555025E+02  0.84535813702E+02  0.86187345077E+02  0.10566000000E+00 0.  1.
        994    1    1    2    0    0  0.28871968709E+01  0.86842003957E+01  0.19728052479E+01  0.17145577623E+03  0.17120000000E+03 0.  0.
        998    1    1    2    0    0 -0.45608438454E+01  0.80233546297E+01  0.14134913773E+04  0.14135568787E+04  0.10000000000E+02 0.  1.
</event>
<event>
 5    1  0.1360042E-008  0.3785429E+03  0.7957747E-01  0.3457528E+00
         13   -1    0    0    0    0  0.00000000000E+00  0.00000000000E+00  0.14999999963E+04  0.15000000000E+04  0.10566000000E+00 0.  1.
        994   -1    0    0    0    0 -0.00000000000E+00 -0.00000000000E+00  0.11368683772E-12  0.17120000000E+03  0.17120000000E+03 0.  0.
         13    1    1    2    0    0 -0.25916136511E+02  0.26254502567E+02  0.13557866199E+03  0.14050811289E+03  0.10566000000E+00 0.  1.
        994    1    1    2    0    0  0.18894276533E+02 -0.16576278068E+02  0.69955711161E+01  0.17317662861E+03  0.17120000000E+03 0.  0.
        998    1    1    2    0    0  0.70218599775E+01 -0.96782244985E+01  0.13574257632E+04  0.13575152585E+04  0.10000000000E+02 0.  1.
</event>
<event>
 5    1  0.1360042E-008  0.3831909E+03  0.7957747E-01  0.3437381E+00
         13   -1    0    0    0    0  0.00000000000E+00  0.00000000000E+00  0.14999999963E+04  0.15000000000E+04  0.10566000000E+00 0.  1.
        994   -1    0    0    0    0 -0.00000000000E+00 -0.00000000000E+00  0.11368683772E-12  0.17120000000E+03  0.17120000000E+03 0.  0.
         13    1    1    2    0    0  0.53425908328E+01  0.44942776470E+02  0.26502636777E+03  0.26886313100E+03  0.10566000000E+00 0.  1.
        994    1    1    2    0    0 -0.10760226530E+02 -0.67050123193E+02  0.17938588663E+02  0.18504792476E+03  0.17120000000E+03 0.  0.
        998    1    1    2    0    0  0.54176356970E+01  0.22107346722E+02  0.12170350398E+04  0.12172889442E+04  0.10000000000E+02 0.  1.
</event>
<event>
 5    1  0.1360042E-008  0.3828865E+03  0.7957747E-01  0.3438686E+00
         13   -1    0    0    0    0  0.00000000000E+00  0.00000000000E+00  0.14999999963E+04  0.15000000000E+04  0.10566000000E+00 0. -1.
        994   -1    0    0    0    0 -0.00000000000E+00 -0.00000000000E+00  0.11368683772E-12  0.17120000000E+03  0.17120000000E+03 0.  0.
         13    1    1    2    0    0 -0.92412622217E+01  0.21387456562E+02  0.10180453503E+03  0.10443657761E+03  0.10566000000E+00 0. -1.
        994    1    1    2    0    0  0.25714248019E+00 -0.13173500950E+02  0.32581864141E+01  0.17173719174E+03  0.17120000000E+03 0.  0.
        998    1    1    2    0    0  0.89841197416E+01 -0.82139556120E+01  0.13949372748E+04  0.13950262306E+04  0.10000000000E+02 0. -1.
</event>
<event>
 5    1  0.1360042E-008  0.3858937E+03  0.7957747E-01  0.3425891E+00
         13   -1    0    0    0    0  0.00000000000E+00  0.00000000000E+00  0.14999999963E+04  0.15000000000E+04  0.10566000000E+00 0.  1.
        994   -1    0    0    0    0 -0.00000000000E+00 -0.00000000000E+00  0.11368683772E-12  0.17120000000E+03  0.17120000000E+03 0.  0.
         13    1    1    2    0    0 -0.62939284217E+01  0.91600237916E+01  0.49063737560E+02  0.50306869096E+02  0.10566000000E+00 0.  1.
        994    1    1    2    0    0  0.14569538380E+02 -0.12215851578E+02  0.23733989177E+01  0.17226889302E+03  0.17120000000E+03 0.  0.
        998    1    1    2    0    0 -0.82756099579E+01  0.30558277862E+01  0.14485628598E+04  0.14486242379E+04  0.10000000000E+02 0.  1.
</event>
<event>
 5    1  0.1360042E-008  0.3784437E+03  0.7957747E-01  0.3457963E+00
         13   -1    0    0    0    0  0.00000000000E+00  0.00000000000E+00  0.14999999963E+04  0.15000000000E+04  0.10566000000E+00 0. -1.
        994   -1    0    0    0    0 -0.00000000000E+00 -0.00000000000E+00  0.11368683772E-12  0.17120000000E+03  0.17120000000E+03 0.  0.
         13    1    1    2    0    0  0.43190873578E+02 -0.33273121015E+01  0.18493580274E+03  0.18994153012E+03  0.10566000000E+00 0. -1.
        994    1    1    2    0    0 -0.27117232428E+02  0.34433332225E+02  0.11403042136E+02  0.17708887044E+03  0.17120000000E+03 0.  0.
        998    1    1    2    0    0 -0.16073641150E+02 -0.31106020124E+02  0.13036611514E+04  0.13041695994E+04  0.10000000000E+02 0. -1.
</event>
<event>
 5    1  0.1360042E-008  0.3791819E+03  0.7957747E-01  0.3454728E+00
         13   -1    0    0    0    0  0.00000000000E+00  0.00000000000E+00  0.14999999963E+04  0.15000000000E+04  0.10566000000E+00 0. -1.
        994   -1    0    0    0    0 -0.00000000000E+00 -0.00000000000E+00  0.11368683772E-12  0.17120000000E+03  0.17120000000E+03 0.  0.
         13    1    1    2    0    0 -0.20585988324E+02  0.44762025930E+01  0.50405121624E+02  0.54630639342E+02  0.10566000000E+00 0. -1.
        994    1    1    2    0    0 -0.55479118084E+01 -0.20952059085E+01  0.46645699788E+01  0.17136617935E+03  0.17120000000E+03 0.  0.
        998    1    1    2    0    0  0.26133900133E+02 -0.23809966844E+01  0.14449303047E+04  0.14452031813E+04  0.10000000000E+02 0. -1.
</event>
<event>
 5    1  0.1360042E-008  0.3821211E+03  0.7957747E-01  0.3441974E+00
         13   -1    0    0    0    0  0.00000000000E+00  0.00000000000E+00  0.14999999963E+04  0.15000000000E+04  0.10566000000E+00 0. -1.
        994   -1    0    0    0    0 -0.00000000000E+00 -0.00000000000E+00  0.11368683772E-12  0.17120000000E+03  0.17120000000E+03 0.  0.
         13    1    1    2    0    0 -0.23756172843E+02 -0.16351396081E+02  0.15188655289E+03  0.15460032347E+03  0.10566000000E+00 0. -1.
        994    1    1    2    0    0  0.60168374607E+01 -0.67704466279E+01  0.33386249581E+01  0.17147194434E+03  0.17120000000E+03 0.  0.
        998    1    1    2    0    0  0.17739335382E+02  0.23121842709E+02  0.13447748184E+04  0.13451277322E+04  0.10000000000E+02 0. -1.
</event>
<event>
 5    1  0.1360042E-008  0.3810205E+03  0.7957747E-01  0.3446727E+00
         13   -1    0    0    0    0  0.00000000000E+00  0.00000000000E+00  0.14999999963E+04  0.15000000000E+04  0.10566000000E+00 0.  1.
        994   -1    0    0    0    0 -0.00000000000E+00 -0.00000000000E+00  0.11368683772E-12  0.17120000000E+03  0.17120000000E+03 0.  0.
         13    1    1    2    0    0 -0.90669675759E+01 -0.49694953449E+01  0.13184304888E+02  0.16755382550E+02  0.10566000000E+00 0.  1.
        994    1    1    2    0    0  0.66067954607E+01  0.58114895247E+01  0.38768729502E+01  0.17146980288E+03  0.17120000000E+03 0.  0.
        998    1    1    2    0    0  0.24601721152E+01 -0.84199417976E+00  0.14829388184E+04  0.14829748146E+04  0.10000000000E+02 0.  1.
</event>
<event>
 5    1  0.1360042E-008  0.3835156E+03  0.7957747E-01  0.3435992E+00
         13   -1    0    0    0    0  0.00000000000E+00  0.00000000000E+00  0.14999999963E+04  0.15000000000E+04  0.10566000000E+00 0.  1.
        994   -1    0    0    0    0 -0.00000000000E+00 -0.00000000000E+00  0.11368683772E-12  0.17120000000E+03  0.17120000000E+03 0.  0.
         13    1    1    2    0    0 -0.62624321613E+01  0.22607555184E+02  0.11561126455E+03  0.11796734829E+03  0.10566000000E+00 0.  1.
        994    1    1    2    0    0  0.16284890250E+02 -0.10626500419E+02  0.36194365938E+01  0.17233879564E+03  0.17120000000E+03 0.  0.
        998    1    1    2    0    0 -0.10022458089E+02 -0.11981054765E+02  0.13807692951E+04  0.13808938561E+04  0.10000000000E+02 0.  1.
</event>
<event>
 5    1  0.1360042E-008  0.3816071E+03  0.7957747E-01  0.3444190E+00
         13   -1    0    0    0    0  0.00000000000E+00  0.00000000000E+00  0.14999999963E+04  0.15000000000E+04  0.10566000000E+00 0. -1.
        994   -1    0    0    0    0 -0.00000000000E+00 -0.00000000000E+00  0.11368683772E-12  0.17120000000E+03  0.17120000000E+03 0.  0.
         13    1    1    2    0    0  0.17035152229E+02 -0.23407995161E+01  0.42647317866E+02  0.45983482242E+02  0.10566000000E+00 0. -1.
        994    1    1    2    0    0 -0.15330106798E+02  0.96822059551E+00  0.41090455103E+01  0.17193683108E+03  0.17120000000E+03 0.  0.
        998    1    1    2    0    0 -0.17050454311E+01  0.13725789206E+01  0.14532436329E+04  0.14532796867E+04  0.10000000000E+02 0. -1.
</event>
<event>
 5    1  0.1360042E-008  0.2963203E+03  0.7957747E-01  0.3922644E+00
         13   -1    0    0    0    0  0.00000000000E+00  0.00000000000E+00  0.14999999963E+04  0.15000000000E+04  0.10566000000E+00 0.  1.
        994   -1    0    0    0    0 -0.00000000000E+00 -0.00000000000E+00  0.11368683772E-12  0.17120000000E+03  0.17120000000E+03 0.  0.
         13    1    1    2    0    0 -0.20010966676E+02 -0.17280109730E+03  0.89123367466E+03  0.90805183333E+03  0.10566000000E+00 0.  1.
        994    1    1    2    0    0  0.63604912729E+02  0.31771183062E+02  0.60087583548E+02  0.19487162619E+03  0.17120000000E+03 0.  0.
        998    1    1    2    0    0 -0.43593946053E+02  0.14102991424E+03  0.54867873808E+03  0.56827654048E+03  0.10000000000E+02 0. -1.
</event>
<event>
 5    1  0.1360042E-008  0.3852532E+03  0.7957747E-01  0.3428599E+00
         13   -1    0    0    0    0  0.00000000000E+00  0.00000000000E+00  0.14999999963E+04  0.15000000000E+04  0.10566000000E+00 0.  1.
        994   -1    0    0    0    0 -0.00000000000E+00 -0.00000000000E+00  0.11368683772E-12  0.17120000000E+03  0.17120000000E+03 0.  0.
         13    1    1    2    0    0 -0.66946159663E+01  0.18393563077E+02  0.11838693072E+03  0.11999423976E+03  0.10566000000E+00 0.  1.
        994    1    1    2    0    0  0.47140271491E+01 -0.20470346181E+02  0.29557869687E+01  0.17250922816E+03  0.17120000000E+03 0.  0.
        998    1    1    2    0    0  0.19805888173E+01  0.20767831037E+01  0.13786572786E+04  0.13786965321E+04  0.10000000000E+02 0.  1.
</event>
<event>
 5    1  0.1360042E-008  0.3822682E+03  0.7957747E-01  0.3441341E+00
         13   -1    0    0    0    0  0.00000000000E+00  0.00000000000E+00  0.14999999963E+04  0.15000000000E+04  0.10566000000E+00 0. -1.
        994   -1    0    0    0    0 -0.00000000000E+00 -0.00000000000E+00  0.11368683772E-12  0.17120000000E+03  0.17120000000E+03 0.  0.
         13    1    1    2    0    0 -0.19288365189E+02 -0.78178195894E+01  0.69409433896E+02  0.72462680137E+02  0.10566000000E+00 0. -1.
        994    1    1    2    0    0  0.20178331089E+02  0.93579032652E+00  0.43475828912E+01  0.17244240263E+03  0.17120000000E+03 0.  0.
        998    1    1    2    0    0 -0.88996589988E+00  0.68820292629E+01  0.14262429795E+04  0.14262949172E+04  0.10000000000E+02 0. -1.
</event>
<event>
 5    1  0.1360042E-008  0.3831167E+03  0.7957747E-01  0.3437699E+00
         13   -1    0    0    0    0  0.00000000000E+00  0.00000000000E+00  0.14999999963E+04  0.15000000000E+04  0.10566000000E+00 0. -1.
        994   -1    0    0    0    0 -0.00000000000E+00 -0.00000000000E+00  0.11368683772E-12  0.17120000000E+03  0.17120000000E+03 0.  0.
         13    1    1    2    0    0  0.30728804979E+02  0.56555740408E+01  0.16888299415E+03  0.17174900829E+03  0.10566000000E+00 0. -1.
        994    1    1    2    0    0 -0.31350510129E+02 -0.84160393574E+01  0.60623689993E+01  0.17435560364E+03  0.17120000000E+03 0.  0.
        998    1    1    2    0    0  0.62170515044E+00  0.27604653166E+01  0.13250546331E+04  0.13250953881E+04  0.10000000000E+02 0.  0.
</event>
<event>
 5    1  0.1360042E-008  0.3806870E+03  0.7957747E-01  0.3448173E+00
         13   -1    0    0    0    0  0.00000000000E+00  0.00000000000E+00  0.14999999963E+04  0.15000000000E+04  0.10566000000E+00 0.  1.
        994   -1    0    0    0    0 -0.00000000000E+00 -0.00000000000E+00  0.11368683772E-12  0.17120000000E+03  0.17120000000E+03 0.  0.
         13    1    1    2    0    0  0.68515564926E+02  0.79360629547E+01  0.12607875593E+03  0.14371230843E+03  0.10566000000E+00 0.  1.
        994    1    1    2    0    0 -0.67562282741E+02 -0.13913029408E+02  0.34200719259E+02  0.18771617840E+03  0.17120000000E+03 0.  0.
        998    1    1    2    0    0 -0.95328218476E+00  0.59769664529E+01  0.13397205211E+04  0.13397715132E+04  0.10000000000E+02 0.  1.
</event>
<event>
 5    1  0.1360042E-008  0.3857789E+03  0.7957747E-01  0.3426375E+00
         13   -1    0    0    0    0  0.00000000000E+00  0.00000000000E+00  0.14999999963E+04  0.15000000000E+04  0.10566000000E+00 0. -1.
        994   -1    0    0    0    0 -0.00000000000E+00 -0.00000000000E+00  0.11368683772E-12  0.17120000000E+03  0.17120000000E+03 0.  0.
         13    1    1    2    0    0 -0.12609971281E+02  0.56672761039E+01  0.76548927970E+02  0.77787395711E+02  0.10566000000E+00 0. -1.
        994    1    1    2    0    0  0.88075934186E+01 -0.63117757986E+01  0.16291628053E+01  0.17155030279E+03  0.17120000000E+03 0.  0.
        998    1    1    2    0    0  0.38023778620E+01  0.64449969475E+00  0.14218219055E+04  0.14218623015E+04  0.10000000000E+02 0. -1.
</event>
<event>
 5    1  0.1360042E-008  0.3708688E+03  0.7957747E-01  0.3491907E+00
         13   -1    0    0    0    0  0.00000000000E+00  0.00000000000E+00  0.14999999963E+04  0.15000000000E+04  0.10566000000E+00 0. -1.
        994   -1    0    0    0    0 -0.00000000000E+00 -0.00000000000E+00  0.11368683772E-12  0.17120000000E+03  0.17120000000E+03 0.  0.
         13    1    1    2    0    0  0.15583322282E+02  0.22414312460E+02  0.27479418442E+02  0.38734621960E+02  0.10566000000E+00 0. -1.
        994    1    1    2    0    0  0.99662913376E+00 -0.33592277882E+02  0.15369802367E+02  0.17514309929E+03  0.17120000000E+03 0.  0.
        998    1    1    2    0    0 -0.16579951416E+02  0.11177965422E+02  0.14571507755E+04  0.14573222788E+04  0.10000000000E+02 0. -1.
</event>
<event>
 5    1  0.1360042E-008  0.3855310E+03  0.7957747E-01  0.3427423E+00
         13   -1    0    0    0    0  0.00000000000E+00  0.00000000000E+00  0.14999999963E+04  0.15000000000E+04  0.10566000000E+00 0.  1.
        994   -1    0    0    0    0 -0.00000000000E+00 -0.00000000000E+00  0.11368683772E-12  0.17120000000E+03  0.17120000000E+03 0.  0.
         13    1    1    2    0    0  0.11916435051E+02 -0.45405772524E+00  0.56838315193E+02  0.58075922987E+02  0.10566000000E+00 0.  1.
        994    1    1    2    0    0  0.36875435318E+01 -0.17900118009E+02  0.24640774617E+01  0.17219037104E+03  0.17120000000E+03 0.  0.
        998    1    1    2    0    0 -0.15603978583E+02  0.18354175735E+02  0.14406976036E+04  0.14409337060E+04  0.10000000000E+02 0.  1.
</event>
<event>
 5    1  0.1360042E-008  0.3812894E+03  0.7957747E-01  0.3445563E+00
         13   -1    0    0    0    0  0.00000000000E+00  0.00000000000E+00  0.14999999963E+04  0.15000000000E+04  0.10566000000E+00 0. -1.
        994   -1    0    0    0    0 -0.00000000000E+00 -0.00000000000E+00  0.11368683772E-12  0.17120000000E+03  0.17120000000E+03 0.  0.
         13    1    1    2    0    0  0.31175308515E+02 -0.18658281647E+02  0.20490971815E+03  0.20810582666E+03  0.10566000000E+00 0. -1.
        994    1    1    2    0    0 -0.86242759950E+01  0.65686165863E+01  0.38749746306E+01  0.17158665533E+03  0.17120000000E+03 0.  0.
        998    1    1    2    0    0 -0.22551032520E+02  0.12089665060E+02  0.12912153035E+04  0.12915075180E+04  0.10000000000E+02 0. -1.
</event>
<event>
 5    1  0.1360042E-008  0.3836041E+03  0.7957747E-01  0.3435614E+00
         13   -1    0    0    0    0  0.00000000000E+00  0.00000000000E+00  0.14999999963E+04  0.15000000000E+04  0.10566000000E+00 0.  1.
        994   -1    0    0    0    0 -0.00000000000E+00 -0.00000000000E+00  0.11368683772E-12  0.17120000000E+03  0.17120000000E+03 0.  0.
         13    1    1    2    0    0  0.17181103728E+02 -0.27152029806E+01  0.64875595116E+02  0.67167080167E+02  0.10566000000E+00 0.  1.
        994    1    1    2    0    0 -0.95765330090E+01  0.49438922756E+01  0.27085825798E+01  0.17156027651E+03  0.17120000000E+03 0.  0.
        998    1    1    2    0    0 -0.76045707187E+01 -0.22286892951E+01  0.14324158186E+04  0.14324726433E+04  0.10000000000E+02 0.  1.
</event>
<event>
 5    1  0.1360042E-008  0.3698011E+03  0.7957747E-01  0.3496805E+00
         13   -1    0    0    0    0  0.00000000000E+00  0.00000000000E+00  0.14999999963E+04  0.15000000000E+04  0.10566000000E+00 0.  1.
        994   -1    0    0    0    0 -0.00000000000E+00 -0.00000000000E+00  0.11368683772E-12  0.17120000000E+03  0.17120000000E+03 0.  0.
         13    1    1    2    0    0 -0.79367645398E+02  0.11787290262E+02  0.44288307346E+03  0.45009286961E+03  0.10566000000E+00 0.  1.
        994    1    1    2    0    0  0.17057779881E+02  0.36889942441E+01  0.10427578819E+02  0.17240287391E+03  0.17120000000E+03 0.  0.
        998    1    1    2    0    0  0.62309865518E+02 -0.15476284506E+02  0.10466893440E+04  0.10487042565E+04  0.10000000000E+02 0.  1.
</event>
<event>
 5    1  0.1360042E-008  0.3711957E+03  0.7957747E-01  0.3490414E+00
         13   -1    0    0    0    0  0.00000000000E+00  0.00000000000E+00  0.14999999963E+04  0.15000000000E+04  0.10566000000E+00 0. -1.
        994   -1    0    0    0    0 -0.00000000000E+00 -0.00000000000E+00  0.11368683772E-12  0.17120000000E+03  0.17120000000E+03 0.  0.
         13    1    1    2    0    0 -0.13235585509E+02 -0.15337845734E+01  0.62137883033E+01  0.14702229355E+02  0.10566000000E+00 0. -1.
        994    1    1    2    0    0  0.16932327545E+02 -0.95674055350E+00  0.96364523965E+01  0.17230763269E+03  0.17120000000E+03 0.  0.
        998    1    1    2    0    0 -0.36967420354E+01  0.24905251269E+01  0.14841497556E+04  0.14841901380E+04  0.10000000000E+02 0. -1.
</event>
<event>
 5    1  0.1360042E-008  0.3756866E+03  0.7957747E-01  0.3470158E+00
         13   -1    0    0    0    0  0.00000000000E+00  0.00000000000E+00  0.14999999963E+04  0.15000000000E+04  0.10566000000E+00 0. -1.
        994   -1    0    0    0    0 -0.00000000000E+00 -0.00000000000E+00  0.11368683772E-12  0.17120000000E+03  0.17120000000E+03 0.  0.
         13    1    1    2    0    0 -0.91900059598E+02 -0.41459594366E+02  0.53753125932E+03  0.54690436534E+03  0.10566000000E+00 0. -1.
        994    1    1    2    0    0  0.88903011462E+02  0.35187544612E+02  0.37989525447E+02  0.19973620800E+03  0.17120000000E+03 0.  0.
        998    1    1    2    0    0  0.29970481369E+01  0.62720497548E+01  0.92447921151E+03  0.92455942666E+03  0.10000000000E+02 0. -1.
</event>
<event>
 5    1  0.1360042E-008  0.3694200E+03  0.7957747E-01  0.3498561E+00
         13   -1    0    0    0    0  0.00000000000E+00  0.00000000000E+00  0.14999999963E+04  0.15000000000E+04  0.10566000000E+00 0.  1.
        994   -1    0    0    0    0 -0.00000000000E+00 -0.00000000000E+00  0.11368683772E-12  0.17120000000E+03  0.17120000000E+03 0.  0.
         13    1    1    2    0    0  0.85912166640E+02  0.62131238624E+02  0.45739919983E+03  0.46952660239E+03  0.10566000000E+00 0.  1.
        994    1    1    2    0    0 -0.48486838435E+02 -0.69167753382E+02  0.35958827968E+02  0.19426175362E+03  0.17120000000E+03 0.  0.
        998    1    1    2    0    0 -0.37425328205E+02  0.70365147573E+01  0.10066419685E+04  0.10074116440E+04  0.10000000000E+02 0. -1.
</event>
<event>
 5    1  0.1360042E-008  0.3791253E+03  0.7957747E-01  0.3454976E+00
         13   -1    0    0    0    0  0.00000000000E+00  0.00000000000E+00  0.14999999963E+04  0.15000000000E+04  0.10566000000E+00 0. -1.
        994   -1    0    0    0    0 -0.00000000000E+00 -0.00000000000E+00  0.11368683772E-12  0.17120000000E+03  0.17120000000E+03 0.  0.
         13    1    1    2    0    0 -0.43221054353E+00  0.13055461102E+02  0.16826558831E+02  0.21302021422E+02  0.10566000000E+00 0. -1.
        994    1    1    2    0    0  0.91980605680E+00 -0.59256468019E+01  0.46958884076E+01  0.17136934003E+03  0.17120000000E+03 0.  0.
        998    1    1    2    0    0 -0.48759551327E+00 -0.71298142997E+01  0.14784775490E+04  0.14785286386E+04  0.10000000000E+02 0. -1.
</event>
<event>
 5    1  0.1360042E-008  0.3752374E+03  0.7957747E-01  0.3472162E+00
         13   -1    0    0    0    0  0.00000000000E+00  0.00000000000E+00  0.14999999963E+04  0.15000000000E+04  0.10566000000E+00 0. -1.
        994   -1    0    0    0    0 -0.00000000000E+00 -0.00000000000E+00  0.11368683772E-12  0.17120000000E+03  0.17120000000E+03 0.  0.
         13    1    1    2    0    0  0.69152557224E+02  0.22877399399E+02  0.17133337931E+03  0.18617354700E+03  0.10566000000E+00 0. -1.
        994    1    1    2    0    0 -0.66299106302E+02 -0.15885976466E+02  0.30479606017E+02  0.18677896597E+03  0.17120000000E+03 0.  0.
        998    1    1    2    0    0 -0.28534509214E+01 -0.69914229332E+01  0.12981870110E+04  0.12982474870E+04  0.10000000000E+02 0. -1.
</event>
<event>
 5    1  0.1360042E-008  0.3803855E+03  0.7957747E-01  0.3449481E+00
         13   -1    0    0    0    0  0.00000000000E+00  0.00000000000E+00  0.14999999963E+04  0.15000000000E+04  0.10566000000E+00 0.  1.
        994   -1    0    0    0    0 -0.00000000000E+00 -0.00000000000E+00  0.11368683772E-12  0.17120000000E+03  0.17120000000E+03 0.  0.
         13    1    1    2    0    0 -0.12331341490E+02  0.16328750656E+02  0.54343026953E+02  0.58067769230E+02  0.10566000000E+00 0.  1.
        994    1    1    2    0    0 -0.13011045442E+02 -0.10951272622E+02  0.49048429482E+01  0.17211250727E+03  0.17120000000E+03 0.  0.
        998    1    1    2    0    0  0.25342386932E+02 -0.53774780333E+01  0.14407521264E+04  0.14410197235E+04  0.10000000000E+02 0.  1.
</event>
<event>
 5    1  0.1360042E-008  0.3833702E+03  0.7957747E-01  0.3436614E+00
         13   -1    0    0    0    0  0.00000000000E+00  0.00000000000E+00  0.14999999963E+04  0.15000000000E+04  0.10566000000E+00 0. -1.
        994   -1    0    0    0    0 -0.00000000000E+00 -0.00000000000E+00  0.11368683772E-12  0.17120000000E+03  0.17120000000E+03 0.  0.
         13    1    1    2    0    0  0.29773029898E+01  0.22298452947E+02  0.94236979487E+02  0.96885008147E+02  0.10566000000E+00 0. -1.
        994    1    1    2    0    0 -0.55334971577E+01 -0.27814422813E+02  0.51049872329E+01  0.17360807182E+03  0.17120000000E+03 0.  0.
        998    1    1    2    0    0  0.25561941679E+01  0.55159698654E+01  0.14006580296E+04  0.14007069200E+04  0.10000000000E+02 0. -1.
</event>
<event>
 5    1  0.1360042E-008  0.3854137E+03  0.7957747E-01  0.3427919E+00
         13   -1    0    0    0    0  0.00000000000E+00  0.00000000000E+00  0.14999999963E+04  0.15000000000E+04  0.10566000000E+00 0. -1.
        994   -1    0    0    0    0 -0.00000000000E+00 -0.00000000000E+00  0.11368683772E-12  0.17120000000E+03  0.17120000000E+03 0.  0.
         13    1    1    2    0    0  0.83162223348E+01  0.86081544412E+01  0.52523115154E+02  0.53869737946E+02  0.10566000000E+00 0. -1.
        994    1    1    2    0    0  0.21077531843E+01 -0.40492676321E+01  0.14933165409E+01  0.17126736171E+03  0.17120000000E+03 0.  0.
        998    1    1    2    0    0 -0.10423975519E+02 -0.45588868091E+01  0.14459835646E+04  0.14460629003E+04  0.10000000000E+02 0. -1.
</event>
<event>
 5    1  0.1360042E-008  0.3800764E+03  0.7957747E-01  0.3450826E+00
         13   -1    0    0    0    0  0.00000000000E+00  0.00000000000E+00  0.14999999963E+04  0.15000000000E+04  0.10566000000E+00 0.  1.
        994   -1    0    0    0    0 -0.00000000000E+00 -0.00000000000E+00  0.11368683772E-12  0.17120000000E+03  0.17120000000E+03 0.  0.
         13    1    1    2    0    0 -0.66053220085E+01 -0.22999098500E+02  0.70630516875E+02  0.74573922310E+02  0.10566000000E+00 0.  1.
        994    1    1    2    0    0 -0.10042368685E+00  0.83543650760E+01  0.43278902648E+01  0.17145838018E+03  0.17120000000E+03 0.  0.
        998    1    1    2    0    0  0.67057456954E+01  0.14644733424E+02  0.14250415891E+04  0.14251676975E+04  0.10000000000E+02 0.  1.
</event>
<event>
 5    1  0.1360042E-008  0.3802178E+03  0.7957747E-01  0.3450211E+00
         13   -1    0    0    0    0  0.00000000000E+00  0.00000000000E+00  0.14999999963E+04  0.15000000000E+04  0.10566000000E+00 0. -1.
        994   -1    0    0    0    0 -0.00000000000E+00 -0.00000000000E+00  0.11368683772E-12  0.17120000000E+03  0.17120000000E+03 0.  0.
         13    1    1    2    0    0 -0.67778547878E+01  0.10662108024E+02  0.18586003503E+02  0.22473774789E+02  0.10566000000E+00 0. -1.
        994    1    1    2    0    0  0.80427591543E+01  0.52058214253E+01  0.43299066628E+01  0.17152251935E+03  0.17120000000E+03 0.  0.
        998    1    1    2    0    0 -0.12649043665E+01 -0.15867929449E+02  0.14770840861E+04  0.14772037059E+04  0.10000000000E+02 0. -1.
</event>
<event>
 5    1  0.1360042E-008  0.3813142E+03  0.7957747E-01  0.3445456E+00
         13   -1    0    0    0    0  0.00000000000E+00  0.00000000000E+00  0.14999999963E+04  0.15000000000E+04  0.10566000000E+00 0.  1.
        994   -1    0    0    0    0 -0.00000000000E+00 -0.00000000000E+00  0.11368683772E-12  0.17120000000E+03  0.17120000000E+03 0.  0.
         13    1    1    2    0    0  0.36588088963E+01 -0.11457892122E+02  0.19377242414E+02  0.22806991516E+02  0.10566000000E+00 0.  1.
        994    1    1    2    0    0 -0.11287155468E+01  0.94770229239E+01  0.37744563323E+01  0.17150735985E+03  0.17120000000E+03 0.  0.
        998    1    1    2    0    0 -0.25300933494E+01  0.19808691976E+01  0.14768482975E+04  0.14768856486E+04  0.10000000000E+02 0.  1.
</event>
<event>
 5    1  0.1360042E-008  0.3785447E+03  0.7957747E-01  0.3457520E+00
         13   -1    0    0    0    0  0.00000000000E+00  0.00000000000E+00  0.14999999963E+04  0.15000000000E+04  0.10566000000E+00 0. -1.
        994   -1    0    0    0    0 -0.00000000000E+00 -0.00000000000E+00  0.11368683772E-12  0.17120000000E+03  0.17120000000E+03 0.  0.
         13    1    1    2    0    0  0.21488736568E+02  0.15175557396E+02  0.74162657794E+02  0.78690369910E+02  0.10566000000E+00 0. -1.
        994    1    1    2    0    0  0.65727852994E+01 -0.99865123038E+01  0.53498231489E+01  0.17170029861E+03  0.17120000000E+03 0.  0.
        998    1    1    2    0    0 -0.28061521867E+02 -0.51890450918E+01  0.14204875153E+04  0.14208093315E+04  0.10000000000E+02 0. -1.
</event>
<event>
 5    1  0.1360042E-008  0.3796128E+03  0.7957747E-01  0.3452846E+00
         13   -1    0    0    0    0  0.00000000000E+00  0.00000000000E+00  0.14999999963E+04  0.15000000000E+04  0.10566000000E+00 0. -1.
        994   -1    0    0    0    0 -0.00000000000E+00 -0.00000000000E+00  0.11368683772E-12  0.17120000000E+03  0.17120000000E+03 0.  0.
         13    1    1    2    0    0 -0.99637681651E+01  0.10133691965E+02  0.21043219143E+02  0.25392845938E+02  0.10566000000E+00 0. -1.
        994    1    1    2    0    0  0.21641447616E+02 -0.43410579482E+01  0.59611692368E+01  0.17271992525E+03  0.17120000000E+03 0.  0.
        998    1    1    2    0    0 -0.11677679451E+02 -0.57926340166E+01  0.14729956079E+04  0.14730872288E+04  0.10000000000E+02 0. -1.
</event>
<event>
 5    1  0.1360042E-008  0.3815802E+03  0.7957747E-01  0.3444307E+00
         13   -1    0    0    0    0  0.00000000000E+00  0.00000000000E+00  0.14999999963E+04  0.15000000000E+04  0.10566000000E+00 0. -1.
        994   -1    0    0    0    0 -0.00000000000E+00 -0.00000000000E+00  0.11368683772E-12  0.17120000000E+03  0.17120000000E+03 0.  0.
         13    1    1    2    0    0 -0.93572795411E+01 -0.68254143979E+01  0.17448106811E+02  0.20942601496E+02  0.10566000000E+00 0. -1.
        994    1    1    2    0    0  0.13122095985E+02  0.39090496144E+02  0.90126080759E+01  0.17632618466E+03  0.17120000000E+03 0.  0.
        998    1    1    2    0    0 -0.37648164440E+01 -0.32265081746E+02  0.14735392814E+04  0.14739312138E+04  0.10000000000E+02 0. -1.
</event>
<event>
 5    1  0.1360042E-008  0.3820125E+03  0.7957747E-01  0.3442442E+00
         13   -1    0    0    0    0  0.00000000000E+00  0.00000000000E+00  0.14999999963E+04  0.15000000000E+04  0.10566000000E+00 0. -1.
        994   -1    0    0    0    0 -0.00000000000E+00 -0.00000000000E+00  0.11368683772E-12  0.17120000000E+03  0.17120000000E+03 0.  0.
         13    1    1    2    0    0  0.52450296342E+02 -0.55462262347E+02  0.44725576560E+03  0.45372329360E+03  0.10566000000E+00 0. -1.
        994    1    1    2    0    0 -0.72719216994E+02  0.75362009031E+02  0.40440485614E+02  0.20472515674E+03  0.17120000000E+03 0.  0.
        998    1    1    2    0    0  0.20268920652E+02 -0.19899746685E+02  0.10123037451E+04  0.10127515497E+04  0.10000000000E+02 0. -1.
</event>
<event>
 5    1  0.1360042E-008  0.3770970E+03  0.7957747E-01  0.3463897E+00
         13   -1    0    0    0    0  0.00000000000E+00  0.00000000000E+00  0.14999999963E+04  0.15000000000E+04  0.10566000000E+00 0. -1.
        994   -1    0    0    0    0 -0.00000000000E+00 -0.00000000000E+00  0.11368683772E-12  0.17120000000E+03  0.17120000000E+03 0.  0.
         13    1    1    2    0    0  0.36449788745E+02 -0.27818284012E+02  0.16047059525E+03  0.16689298107E+03  0.10566000000E+00 0. -1.
        994    1    1    2    0    0 -0.46721572298E+02  0.25608810243E+02  0.15248087300E+02  0.17994627155E+03  0.17120000000E+03 0.  0.
        998    1    1    2    0    0  0.10271783553E+02  0.22094737691E+01  0.13242813137E+04  0.13243607474E+04  0.10000000000E+02 0. -1.
</event>
<event>
 5    1  0.1360042E-008  0.3835625E+03  0.7957747E-01  0.3435792E+00
         13   -1    0    0    0    0  0.00000000000E+00  0.00000000000E+00  0.14999999963E+04  0.15000000000E+04  0.10566000000E+00 0.  1.
        994   -1    0    0    0    0 -0.00000000000E+00 -0.00000000000E+00  0.11368683772E-12  0.17120000000E+03  0.17120000000E+03 0.  0.
         13    1    1    2    0    0  0.72898113799E+01  0.19903719012E+02  0.98405837960E+02  0.10066290026E+03  0.10566000000E+00 0.  1.
        994    1    1    2    0    0 -0.13763532838E+01 -0.83009993001E+01  0.25794675484E+01  0.17142606159E+03  0.17120000000E+03 0.  0.
        998    1    1    2    0    0 -0.59134580961E+01 -0.11602719711E+02  0.13990146908E+04  0.13991110382E+04  0.10000000000E+02 0.  1.
</event>
<event>
 5    1  0.1360042E-008  0.3704182E+03  0.7957747E-01  0.3493971E+00
         13   -1    0    0    0    0  0.00000000000E+00  0.00000000000E+00  0.14999999963E+04  0.15000000000E+04  0.10566000000E+00 0.  1.
        994   -1    0    0    0    0 -0.00000000000E+00 -0.00000000000E+00  0.11368683772E-12  0.17120000000E+03  0.17120000000E+03 0.  0.
         13    1    1    2    0    0  0.16454600283E+02 -0.41576004868E+01  0.11909115887E+02  0.20733492652E+02  0.10566000000E+00 0.  1.
        994    1    1    2    0    0 -0.16237074879E+02 -0.15935174619E+02  0.10839696266E+02  0.17304482485E+03  0.17120000000E+03 0.  0.
        998    1    1    2    0    0 -0.21752540439E+00  0.20092775106E+02  0.14772511841E+04  0.14774216825E+04  0.10000000000E+02 0.  1.
</event>
<event>
 5    1  0.1360042E-008  0.3787952E+03  0.7957747E-01  0.3456421E+00
         13   -1    0    0    0    0  0.00000000000E+00  0.00000000000E+00  0.14999999963E+04  0.15000000000E+04  0.10566000000E+00 0.  1.
        994   -1    0    0    0    0 -0.00000000000E+00 -0.00000000000E+00  0.11368683772E-12  0.17120000000E+03  0.17120000000E+03 0.  0.
         13    1    1    2    0    0  0.12033324256E+02 -0.15009360706E+02  0.37978075152E+02  0.42572610417E+02  0.10566000000E+00 0.  1.
        994    1    1    2    0    0 -0.66894694018E+01  0.22968926181E+01  0.49104827301E+01  0.17141638649E+03  0.17120000000E+03 0.  0.
        998    1    1    2    0    0 -0.53438548540E+01  0.12712468088E+02  0.14571114384E+04  0.14572110031E+04  0.10000000000E+02 0.  1.
</event>
<event>
 5    1  0.1360042E-008  0.3830468E+03  0.7957747E-01  0.3437998E+00
         13   -1    0    0    0    0  0.00000000000E+00  0.00000000000E+00  0.14999999963E+04  0.15000000000E+04  0.10566000000E+00 0. -1.
        994   -1    0    0    0    0 -0.00000000000E+00 -0.00000000000E+00  0.11368683772E-12  0.17120000000E+03  0.17120000000E+03 0.  0.
         13    1    1    2    0    0 -0.21367635933E+02 -0.31608987597E+02  0.22508044039E+03  0.22829130463E+03  0.10566000000E+00 0. -1.
        994    1    1    2    0    0  0.28417544116E+02  0.34964000330E+02  0.93508335382E+01  0.17727638371E+03  0.17120000000E+03 0.  0.
        998    1    1    2    0    0 -0.70499081829E+01 -0.33550127338E+01  0.12655687224E+04  0.12656323117E+04  0.10000000000E+02 0. -1.
</event>
<event>
 5    1  0.1360042E-008  0.3823776E+03  0.7957747E-01  0.3440871E+00
         13   -1    0    0    0    0  0.00000000000E+00  0.00000000000E+00  0.14999999963E+04  0.15000000000E+04  0.10566000000E+00 0.  1.
        994   -1    0    0    0    0 -0.00000000000E+00 -0.00000000000E+00  0.11368683772E-12  0.17120000000E+03  0.17120000000E+03 0.  0.
         13    1    1    2    0    0  0.29201688825E+02  0.13471062237E+01  0.15563790261E+03  0.15835946836E+03  0.10566000000E+00 0.  1.
        994    1    1    2    0    0 -0.74063623228E+01 -0.70139858639E+01  0.32829431275E+01  0.17153503408E+03  0.17120000000E+03 0.  0.
        998    1    1    2    0    0 -0.21795326502E+02  0.56668796402E+01  0.13410791505E+04  0.13413054976E+04  0.10000000000E+02 0.  1.
</event>
<event>
 5    1  0.1360042E-008  0.3847210E+03  0.7957747E-01  0.3430857E+00
         13   -1    0    0    0    0  0.00000000000E+00  0.00000000000E+00  0.14999999963E+04  0.15000000000E+04  0.10566000000E+00 0.  1.
        994   -1    0    0    0    0 -0.00000000000E+00 -0.00000000000E+00  0.11368683772E-12  0.17120000000E+03  0.17120000000E+03 0.  0.
         13    1    1    2    0    0 -0.14079366512E+02  0.10242635006E+02  0.87523649611E+02  0.89238671765E+02  0.10566000000E+00 0.  1.
        994    1    1    2    0    0  0.34274214256E+01 -0.90505781047E+01  0.20770969285E+01  0.17148590179E+03  0.17120000000E+03 0.  0.
        998    1    1    2    0    0  0.10651945086E+02 -0.11920569011E+01  0.14103992497E+04  0.14104754264E+04  0.10000000000E+02 0.  1.
</event>
<event>
 5    1  0.1360042E-008  0.3789250E+03  0.7957747E-01  0.3455853E+00
         13   -1    0    0    0    0  0.00000000000E+00  0.00000000000E+00  0.14999999963E+04  0.15000000000E+04  0.10566000000E+00 0. -1.
        994   -1    0    0    0    0 -0.00000000000E+00 -0.00000000000E+00  0.11368683772E-12  0.17120000000E+03  0.17120000000E+03 0.  0.
         13    1    1    2    0    0 -0.21647828412E+03  0.37513920355E+02  0.99046832576E+03  0.10145430780E+04  0.10566000000E+00 0. -1.
        994    1    1    2    0    0  0.22360873721E+03 -0.25496201012E+02  0.19929875804E+03  0.34594849122E+03  0.17120000000E+03 0.  0.
        998    1    1    2    0    0 -0.71304530919E+01 -0.12017719343E+02  0.31023291248E+03  0.31070843073E+03  0.10000000000E+02 0.  1.
</event>
<event>
 5    1  0.1360042E-008  0.3857760E+03  0.7957747E-01  0.3426388E+00
         13   -1    0    0    0    0  0.00000000000E+00  0.00000000000E+00  0.14999999963E+04  0.15000000000E+04  0.10566000000E+00 0. -1.
        994   -1    0    0    0    0 -0.00000000000E+00 -0.00000000000E+00  0.11368683772E-12  0.17120000000E+03  0.17120000000E+03 0.  0.
         13    1    1    2    0    0  0.32251352617E+00  0.12109995677E+02  0.58294333227E+02  0.59539872864E+02  0.10566000000E+00 0. -1.
        994    1    1    2    0    0  0.20174246753E+00 -0.10910495748E+02  0.16360793609E+01  0.17155522835E+03  0.17120000000E+03 0.  0.
        998    1    1    2    0    0 -0.52425599371E+00 -0.11994999292E+01  0.14400695837E+04  0.14401048988E+04  0.10000000000E+02 0. -1.
</event>
<event>
 5    1  0.1360042E-008  0.3807389E+03  0.7957747E-01  0.3447947E+00
         13   -1    0    0    0    0  0.00000000000E+00  0.00000000000E+00  0.14999999963E+04  0.15000000000E+04  0.10566000000E+00 0.  1.
        994   -1    0    0    0    0 -0.00000000000E+00 -0.00000000000E+00  0.11368683772E-12  0.17120000000E+03  0.17120000000E+03 0.  0.
         13    1    1    2    0    0  0.18700067435E+02 -0.72789303350E+02  0.32148755082E+03  0.33015486018E+03  0.10566000000E+00 0.  1.
        994    1    1    2    0    0 -0.36070055423E+02  0.13265352746E+03  0.69588799459E+02  0.23032596088E+03  0.17120000000E+03 0.  0.
        998    1    1    2    0    0  0.17369987988E+02 -0.59864224105E+02  0.11089236460E+04  0.11107191789E+04  0.10000000000E+02 0.  1.
</event>
<event>
 5    1  0.1360042E-008  0.3851353E+03  0.7957747E-01  0.3429099E+00
         13   -1    0    0    0    0  0.00000000000E+00  0.00000000000E+00  0.14999999963E+04  0.15000000000E+04  0.10566000000E+00 0.  1.
        994   -1    0    0    0    0 -0.00000000000E+00 -0.00000000000E+00  0.11368683772E-12  0.17120000000E+03  0.17120000000E+03 0.  0.
         13    1    1    2    0    0  0.88585987154E+01 -0.54508388973E+01  0.35835607859E+02  0.37314720561E+02  0.10566000000E+00 0.  1.
        994    1    1    2    0    0  0.53392822219E+01  0.72974277982E+01  0.18317929906E+01  0.17144840580E+03  0.17120000000E+03 0.  0.
        998    1    1    2    0    0 -0.14197880937E+02 -0.18465889009E+01  0.14623325954E+04  0.14624368736E+04  0.10000000000E+02 0.  1.
</event>
<event>
 5    1  0.1360042E-008  0.3743321E+03  0.7957747E-01  0.3476215E+00
         13   -1    0    0    0    0  0.00000000000E+00  0.00000000000E+00  0.14999999963E+04  0.15000000000E+04  0.10566000000E+00 0.  1.
        994   -1    0    0    0    0 -0.00000000000E+00 -0.00000000000E+00  0.11368683772E-12  0.17120000000E+03  0.17120000000E+03 0.  0.
         13    1    1    2    0    0  0.60971251470E+01  0.49263798183E+02  0.17167713004E+03  0.17870966647E+03  0.10566000000E+00 0.  1.
        994    1    1    2    0    0  0.28705054309E+02 -0.35340725294E+02  0.14117387247E+02  0.17771237332E+03  0.17120000000E+03 0.  0.
        998    1    1    2    0    0 -0.34802179456E+02 -0.13923072889E+02  0.13142054790E+04  0.13147779602E+04  0.10000000000E+02 0.  1.
</event>
<event>
 5    1  0.1360042E-008  0.3837515E+03  0.7957747E-01  0.3434984E+00
         13   -1    0    0    0    0  0.00000000000E+00  0.00000000000E+00  0.14999999963E+04  0.15000000000E+04  0.10566000000E+00 0. -1.
        994   -1    0    0    0    0 -0.00000000000E+00 -0.00000000000E+00  0.11368683772E-12  0.17120000000E+03  0.17120000000E+03 0.  0.
         13    1    1    2    0    0  0.99334999071E+01  0.75959133654E+01  0.32577921114E+02  0.34895621909E+02  0.10566000000E+00 0. -1.
        994    1    1    2    0    0 -0.11968418515E+02 -0.17134816529E+02  0.36950417083E+01  0.17251069043E+03  0.17120000000E+03 0.  0.
        998    1    1    2    0    0  0.20349186078E+01  0.95389031638E+01  0.14637270335E+04  0.14637936877E+04  0.10000000000E+02 0. -1.
</event>
<event>
 5    1  0.1360042E-008  0.3753044E+03  0.7957747E-01  0.3471863E+00
         13   -1    0    0    0    0  0.00000000000E+00  0.00000000000E+00  0.14999999963E+04  0.15000000000E+04  0.10566000000E+00 0. -1.
        994   -1    0    0    0    0 -0.00000000000E+00 -0.00000000000E+00  0.11368683772E-12  0.17120000000E+03  0.17120000000E+03 0.  0.
         13    1    1    2    0    0  0.94546909817E+02 -0.85331710920E+01  0.27881392893E+03  0.29453208874E+03  0.10566000000E+00 0. -1.
        994    1    1    2    0    0 -0.85803328894E+02 -0.16508296976E+02  0.41495532038E+02  0.19663685895E+03  0.17120000000E+03 0.  0.
        998    1    1    2    0    0 -0.87435809234E+01  0.25041468068E+02  0.11796905353E+04  0.11800310523E+04  0.10000000000E+02 0. -1.
</event>
<event>
 5    1  0.1360042E-008  0.3848666E+03  0.7957747E-01  0.3430238E+00
         13   -1    0    0    0    0  0.00000000000E+00  0.00000000000E+00  0.14999999963E+04  0.15000000000E+04  0.10566000000E+00 0. -1.
        994   -1    0    0    0    0 -0.00000000000E+00 -0.00000000000E+00  0.11368683772E-12  0.17120000000E+03  0.17120000000E+03 0.  0.
         13    1    1    2    0    0 -0.20384121887E+02  0.24228915219E+01  0.11812245776E+03  0.11989290646E+03  0.10566000000E+00 0. -1.
        994    1    1    2    0    0  0.18569477547E+02 -0.34207471733E+01  0.28702832077E+01  0.17226202580E+03  0.17120000000E+03 0.  0.
        998    1    1    2    0    0  0.18146443398E+01  0.99785565140E+00  0.13790072553E+04  0.13790450677E+04  0.10000000000E+02 0.  0.
</event>
<event>
 5    1  0.1360042E-008  0.3761687E+03  0.7957747E-01  0.3468012E+00
         13   -1    0    0    0    0  0.00000000000E+00  0.00000000000E+00  0.14999999963E+04  0.15000000000E+04  0.10566000000E+00 0.  1.
        994   -1    0    0    0    0 -0.00000000000E+00 -0.00000000000E+00  0.11368683772E-12  0.17120000000E+03  0.17120000000E+03 0.  0.
         13    1    1    2    0    0  0.12629700820E+02 -0.30746635843E+02  0.86973652313E+02  0.93109034574E+02  0.10566000000E+00 0.  1.
        994    1    1    2    0    0 -0.11143442990E+02  0.22738244264E+02  0.82538402517E+01  0.17325925647E+03  0.17120000000E+03 0.  0.
        998    1    1    2    0    0 -0.14862578308E+01  0.80083915784E+01  0.14047725037E+04  0.14048317090E+04  0.10000000000E+02 0.  1.
</event>
<event>
 5    1  0.1360042E-008  0.3847094E+03  0.7957747E-01  0.3430906E+00
         13   -1    0    0    0    0  0.00000000000E+00  0.00000000000E+00  0.14999999963E+04  0.15000000000E+04  0.10566000000E+00 0.  1.
        994   -1    0    0    0    0 -0.00000000000E+00 -0.00000000000E+00  0.11368683772E-12  0.17120000000E+03  0.17120000000E+03 0.  0.
         13    1    1    2    0    0 -0.18106171438E+02 -0.56808436942E+01  0.97180836072E+02  0.99016319326E+02  0.10566000000E+00 0.  1.
        994    1    1    2    0    0  0.15693697558E+02  0.93923453532E+01  0.28763986857E+01  0.17219820546E+03  0.17120000000E+03 0.  0.
        998    1    1    2    0    0  0.24124738796E+01 -0.37115016590E+01  0.13999427615E+04  0.13999854752E+04  0.10000000000E+02 0.  1.
</event>
<event>
 5    1  0.1360042E-008  0.3845251E+03  0.7957747E-01  0.3431689E+00
         13   -1    0    0    0    0  0.00000000000E+00  0.00000000000E+00  0.14999999963E+04  0.15000000000E+04  0.10566000000E+00 0. -1.
        994   -1    0    0    0    0 -0.00000000000E+00 -0.00000000000E+00  0.11368683772E-12  0.17120000000E+03  0.17120000000E+03 0.  0.
         13    1    1    2    0    0 -0.13097920023E+02  0.26251720049E+01  0.51980132089E+02  0.53669286683E+02  0.10566000000E+00 0. -1.
        994    1    1    2    0    0 -0.73390723259E+01  0.19466923020E+01  0.20559972280E+01  0.17138062527E+03  0.17120000000E+03 0.  0.
        998    1    1    2    0    0  0.20436992349E+02 -0.45718643069E+01  0.14459638670E+04  0.14461500880E+04  0.10000000000E+02 0. -1.
</event>
<event>
 5    1  0.1360042E-008  0.3780703E+03  0.7957747E-01  0.3459604E+00
         13   -1    0    0    0    0  0.00000000000E+00  0.00000000000E+00  0.14999999963E+04  0.15000000000E+04  0.10566000000E+00 0. -1.
        994   -1    0    0    0    0 -0.00000000000E+00 -0.00000000000E+00  0.11368683772E-12  0.17120000000E+03  0.17120000000E+03 0.  0.
         13    1    1    2    0    0 -0.65390681016E+02  0.63707898215E+02  0.55186982278E+03  0.55937013677E+03  0.10566000000E+00 0. -1.
        994    1    1    2    0    0  0.11434514937E+03 -0.22091632254E+02  0.52189209751E+02  0.21353221540E+03  0.17120000000E+03 0.  0.
        998    1    1    2    0    0 -0.48954468349E+02 -0.41616265962E+02  0.89594096375E+03  0.89829764783E+03  0.10000000000E+02 0. -1.
</event>
<event>
 5    1  0.1360042E-008  0.3727416E+03  0.7957747E-01  0.3483385E+00
         13   -1    0    0    0    0  0.00000000000E+00  0.00000000000E+00  0.14999999963E+04  0.15000000000E+04  0.10566000000E+00 0.  1.
        994   -1    0    0    0    0 -0.00000000000E+00 -0.00000000000E+00  0.11368683772E-12  0.17120000000E+03  0.17120000000E+03 0.  0.
         13    1    1    2    0    0  0.18771195659E+02  0.12481737302E+02  0.28914410731E+02  0.36663413159E+02  0.10566000000E+00 0.  1.
        994    1    1    2    0    0 -0.14313127558E+02 -0.12461717115E+02  0.90776883437E+01  0.17248769359E+03  0.17120000000E+03 0.  0.
        998    1    1    2    0    0 -0.44580681010E+01 -0.20020186868E-01  0.14620078972E+04  0.14620488933E+04  0.10000000000E+02 0.  1.
</event>
<event>
 5    1  0.1360042E-008  0.3705452E+03  0.7957747E-01  0.3493389E+00
         13   -1    0    0    0    0  0.00000000000E+00  0.00000000000E+00  0.14999999963E+04  0.15000000000E+04  0.10566000000E+00 0.  1.
        994   -1    0    0    0    0 -0.00000000000E+00 -0.00000000000E+00  0.11368683772E-12  0.17120000000E+03  0.17120000000E+03 0.  0.
         13    1    1    2    0    0 -0.58632215188E+02 -0.80600639361E+01  0.15246398614E+03  0.16354809544E+03  0.10566000000E+00 0.  1.
        994    1    1    2    0    0  0.34053406549E+02  0.16521165673E+02  0.16261969839E+02  0.17608655564E+03  0.17120000000E+03 0.  0.
        998    1    1    2    0    0  0.24578808639E+02 -0.84611017367E+01  0.13312740403E+04  0.13315653489E+04  0.10000000000E+02 0.  1.
</event>
<event>
 5    1  0.1360042E-008  0.3858801E+03  0.7957747E-01  0.3425948E+00
         13   -1    0    0    0    0  0.00000000000E+00  0.00000000000E+00  0.14999999963E+04  0.15000000000E+04  0.10566000000E+00 0.  1.
        994   -1    0    0    0    0 -0.00000000000E+00 -0.00000000000E+00  0.11368683772E-12  0.17120000000E+03  0.17120000000E+03 0.  0.
         13    1    1    2    0    0  0.10853996156E+02 -0.13640606128E+01  0.49953979509E+02  0.51137863925E+02  0.10566000000E+00 0.  1.
        994    1    1    2    0    0 -0.92178309649E+01  0.19089480568E+01  0.14844525386E+01  0.17146502877E+03  0.17120000000E+03 0.  0.
        998    1    1    2    0    0 -0.16361651913E+01 -0.54488744403E+00  0.14485615642E+04  0.14485971073E+04  0.10000000000E+02 0.  1.
</event>
<event>
 5    1  0.1360042E-008  0.3774254E+03  0.7957747E-01  0.3462446E+00
         13   -1    0    0    0    0  0.00000000000E+00  0.00000000000E+00  0.14999999963E+04  0.15000000000E+04  0.10566000000E+00 0. -1.
        994   -1    0    0    0    0 -0.00000000000E+00 -0.00000000000E+00  0.11368683772E-12  0.17120000000E+03  0.17120000000E+03 0.  0.
         13    1    1    2    0    0 -0.73187449637E+01  0.25480248910E+02  0.71246999892E+02  0.76019426925E+02  0.10566000000E+00 0. -1.
        994    1    1    2    0    0 -0.21461905976E+02  0.10245088368E+02  0.73477338495E+01  0.17300001282E+03  0.17120000000E+03 0.  0.
        998    1    1    2    0    0  0.28780650939E+02 -0.35725337279E+02  0.14214052625E+04  0.14221805603E+04  0.10000000000E+02 0. -1.
</event>
<event>
 5    1  0.1360042E-008  0.3838329E+03  0.7957747E-01  0.3434637E+00
         13   -1    0    0    0    0  0.00000000000E+00  0.00000000000E+00  0.14999999963E+04  0.15000000000E+04  0.10566000000E+00 0.  1.
        994   -1    0    0    0    0 -0.00000000000E+00 -0.00000000000E+00  0.11368683772E-12  0.17120000000E+03  0.17120000000E+03 0.  0.
         13    1    1    2    0    0  0.10147367302E+02 -0.12793297637E+02  0.60790767111E+02  0.62945738994E+02  0.10566000000E+00 0.  1.
        994    1    1    2    0    0 -0.34229339560E+01  0.70280188033E+01  0.24124287377E+01  0.17139535973E+03  0.17120000000E+03 0.  0.
        998    1    1    2    0    0 -0.67244333457E+01  0.57652788338E+01  0.14367968004E+04  0.14368589013E+04  0.10000000000E+02 0.  1.
</event>
<event>
 5    1  0.1360042E-008  0.3851355E+03  0.7957747E-01  0.3429098E+00
         13   -1    0    0    0    0  0.00000000000E+00  0.00000000000E+00  0.14999999963E+04  0.15000000000E+04  0.10566000000E+00 0. -1.
        994   -1    0    0    0    0 -0.00000000000E+00 -0.00000000000E+00  0.11368683772E-12  0.17120000000E+03  0.17120000000E+03 0.  0.
         13    1    1    2    0    0  0.80443546974E+01 -0.88479313719E+01  0.46498366770E+02  0.48011527870E+02  0.10566000000E+00 0. -1.
        994    1    1    2    0    0 -0.67745436197E+01  0.64238040233E+00  0.17151143813E+01  0.17134377348E+03  0.17120000000E+03 0.  0.
        998    1    1    2    0    0 -0.12698110777E+01  0.82055509695E+01  0.14517865151E+04  0.14518446986E+04  0.10000000000E+02 0. -1.
</event>
<event>
 5    1  0.1360042E-008  0.4118137E+03  0.7957747E-01  0.3323348E+00
         13   -1    0    0    0    0  0.00000000000E+00  0.00000000000E+00  0.14999999963E+04  0.15000000000E+04  0.10566000000E+00 0. -1.
        994   -1    0    0    0    0 -0.00000000000E+00 -0.00000000000E+00  0.11368683772E-12  0.17120000000E+03  0.17120000000E+03 0.  0.
         13    1    1    2    0    0  0.10348573723E+03  0.51610169630E+02  0.17633675469E+03  0.21087334976E+03  0.10566000000E+00 0. -1.
        994    1    1    2    0    0 -0.72844487472E+02 -0.51870888212E+02  0.68779764390E+02  0.20502927691E+03  0.17120000000E+03 0.  0.
        998    1    1    2    0    0 -0.30641249759E+02  0.26071858232E+00  0.12548834772E+04  0.12552973733E+04  0.10000000000E+02 0. -1.
</event>
<event>
 5    1  0.1360042E-008  0.3856097E+03  0.7957747E-01  0.3427091E+00
         13   -1    0    0    0    0  0.00000000000E+00  0.00000000000E+00  0.14999999963E+04  0.15000000000E+04  0.10566000000E+00 0.  1.
        994   -1    0    0    0    0 -0.00000000000E+00 -0.00000000000E+00  0.11368683772E-12  0.17120000000E+03  0.17120000000E+03 0.  0.
         13    1    1    2    0    0  0.12563652530E+02 -0.24030130951E+00  0.60650361736E+02  0.61938523169E+02  0.10566000000E+00 0.  1.
        994    1    1    2    0    0 -0.63840925399E+01 -0.49716506725E+00  0.14623514272E+01  0.17132595332E+03  0.17120000000E+03 0.  0.
        998    1    1    2    0    0 -0.61795599899E+01  0.73746637676E+00  0.14378872831E+04  0.14379355235E+04  0.10000000000E+02 0.  1.
</event>
<event>
 5    1  0.1360042E-008  0.3786758E+03  0.7957747E-01  0.3456945E+00
         13   -1    0    0    0    0  0.00000000000E+00  0.00000000000E+00  0.14999999963E+04  0.15000000000E+04  0.10566000000E+00 0. -1.
        994   -1    0    0    0    0 -0.00000000000E+00 -0.00000000000E+00  0.11368683772E-12  0.17120000000E+03  0.17120000000E+03 0.  0.
         13    1    1    2    0    0 -0.32202178078E+01  0.97640120350E+01  0.89319971175E+01  0.13619745603E+02  0.10566000000E+00 0. -1.
        994    1    1    2    0    0 -0.22556588389E+01 -0.39510643920E+01  0.48725861683E+01  0.17132974348E+03  0.17120000000E+03 0.  0.
        998    1    1    2    0    0  0.54758766467E+01 -0.58129476430E+01  0.14861954130E+04  0.14862505109E+04  0.10000000000E+02 0. -1.
</event>
<event>
 5    1  0.1360042E-008  0.3806799E+03  0.7957747E-01  0.3448203E+00
         13   -1    0    0    0    0  0.00000000000E+00  0.00000000000E+00  0.14999999963E+04  0.15000000000E+04  0.10566000000E+00 0. -1.
        994   -1    0    0    0    0 -0.00000000000E+00 -0.00000000000E+00  0.11368683772E-12  0.17120000000E+03  0.17120000000E+03 0.  0.
         13    1    1    2    0    0 -0.73401826828E+01  0.25965880624E+02  0.10470251687E+03  0.10812369510E+03  0.10566000000E+00 0. -1.
        994    1    1    2    0    0  0.82477394509E+01  0.38407732476E+01  0.40664673137E+01  0.17148980407E+03  0.17120000000E+03 0.  0.
        998    1    1    2    0    0 -0.90755676808E+00 -0.29806653871E+02  0.13912310121E+04  0.13915865008E+04  0.10000000000E+02 0. -1.
</event>
<event>
 5    1  0.1360042E-008  0.3790797E+03  0.7957747E-01  0.3455176E+00
         13   -1    0    0    0    0  0.00000000000E+00  0.00000000000E+00  0.14999999963E+04  0.15000000000E+04  0.10566000000E+00 0. -1.
        994   -1    0    0    0    0 -0.00000000000E+00 -0.00000000000E+00  0.11368683772E-12  0.17120000000E+03  0.17120000000E+03 0.  0.
         13    1    1    2    0    0  0.21931201225E+02 -0.17776451040E+02  0.82406858149E+02  0.87108445243E+02  0.10566000000E+00 0. -1.
        994    1    1    2    0    0 -0.20248666246E+02  0.13833866787E+02  0.66175504362E+01  0.17307401980E+03  0.17120000000E+03 0.  0.
        998    1    1    2    0    0 -0.16825349790E+01  0.39425842526E+01  0.14109755877E+04  0.14110175350E+04  0.10000000000E+02 0. -1.
</event>
<event>
 5    1  0.1360042E-008  0.3835435E+03  0.7957747E-01  0.3435873E+00
         13   -1    0    0    0    0  0.00000000000E+00  0.00000000000E+00  0.14999999963E+04  0.15000000000E+04  0.10566000000E+00 0.  1.
        994   -1    0    0    0    0 -0.00000000000E+00 -0.00000000000E+00  0.11368683772E-12  0.17120000000E+03  0.17120000000E+03 0.  0.
         13    1    1    2    0    0  0.23369956411E+02  0.25376614607E+01  0.10821466622E+03  0.11073851966E+03  0.10566000000E+00 0.  1.
        994    1    1    2    0    0 -0.25466751355E+02 -0.29173297656E+01  0.45291327500E+01  0.17316760459E+03  0.17120000000E+03 0.  0.
        998    1    1    2    0    0  0.20967949444E+01  0.37966830493E+00  0.13872561973E+04  0.13872938757E+04  0.10000000000E+02 0.  0.
</event>
<event>
 5    1  0.1360042E-008  0.3746017E+03  0.7957747E-01  0.3475006E+00
         13   -1    0    0    0    0  0.00000000000E+00  0.00000000000E+00  0.14999999963E+04  0.15000000000E+04  0.10566000000E+00 0.  1.
        994   -1    0    0    0    0 -0.00000000000E+00 -0.00000000000E+00  0.11368683772E-12  0.17120000000E+03  0.17120000000E+03 0.  0.
         13    1    1    2    0    0  0.27137107026E+02  0.36465395568E+02  0.13210541122E+03  0.13970683050E+03  0.10566000000E+00 0.  1.
        994    1    1    2    0    0 -0.38531744018E+02 -0.34670961947E+02  0.16084135806E+02  0.17959652091E+03  0.17120000000E+03 0.  0.
        998    1    1    2    0    0  0.11394636992E+02 -0.17944336205E+01  0.13518104493E+04  0.13518966486E+04  0.10000000000E+02 0.  1.
</event>
<event>
 5    1  0.1360042E-008  0.3758082E+03  0.7957747E-01  0.3469616E+00
         13   -1    0    0    0    0  0.00000000000E+00  0.00000000000E+00  0.14999999963E+04  0.15000000000E+04  0.10566000000E+00 0.  1.
        994   -1    0    0    0    0 -0.00000000000E+00 -0.00000000000E+00  0.11368683772E-12  0.17120000000E+03  0.17120000000E+03 0.  0.
         13    1    1    2    0    0  0.18471467526E+02  0.59190150749E+01  0.72577387107E+01  0.20710282162E+02  0.10566000000E+00 0.  1.
        994    1    1    2    0    0 -0.90104265726E+01 -0.71948927388E+01  0.14518150952E+02  0.17220096102E+03  0.17120000000E+03 0.  0.
        998    1    1    2    0    0 -0.94610409530E+01  0.12758776638E+01  0.14782241066E+04  0.14782887568E+04  0.10000000000E+02 0.  1.
</event>
<event>
 5    1  0.1360042E-008  0.3926851E+03  0.7957747E-01  0.3397719E+00
         13   -1    0    0    0    0  0.00000000000E+00  0.00000000000E+00  0.14999999963E+04  0.15000000000E+04  0.10566000000E+00 0. -1.
        994   -1    0    0    0    0 -0.00000000000E+00 -0.00000000000E+00  0.11368683772E-12  0.17120000000E+03  0.17120000000E+03 0.  0.
         13    1    1    2    0    0 -0.15818994558E+02  0.20565600686E+02  0.43370129689E+01  0.26305994867E+02  0.10566000000E+00 0. -1.
        994    1    1    2    0    0  0.11984975398E+02 -0.14923776879E+02  0.24871649545E+02  0.17405285893E+03  0.17120000000E+03 0.  0.
        998    1    1    2    0    0  0.38340191603E+01 -0.56418238069E+01  0.14707913338E+04  0.14708411462E+04  0.10000000000E+02 0. -1.
</event>
<event>
 5    1  0.1360042E-008  0.3704548E+03  0.7957747E-01  0.3493803E+00
         13   -1    0    0    0    0  0.00000000000E+00  0.00000000000E+00  0.14999999963E+04  0.15000000000E+04  0.10566000000E+00 0. -1.
        994   -1    0    0    0    0 -0.00000000000E+00 -0.00000000000E+00  0.11368683772E-12  0.17120000000E+03  0.17120000000E+03 0.  0.
         13    1    1    2    0    0 -0.27097104782E+02 -0.10575256272E+01  0.27637130639E+02  0.38719421509E+02  0.10566000000E+00 0. -1.
        994    1    1    2    0    0  0.29154926717E+02 -0.29801328467E+01  0.14192858770E+02  0.17426924050E+03  0.17120000000E+03 0.  0.
        998    1    1    2    0    0 -0.20578219348E+01  0.40376584739E+01  0.14581700069E+04  0.14582113380E+04  0.10000000000E+02 0. -1.
</event>
<event>
 5    1  0.1360042E-008  0.3876764E+03  0.7957747E-01  0.3418400E+00
         13   -1    0    0    0    0  0.00000000000E+00  0.00000000000E+00  0.14999999963E+04  0.15000000000E+04  0.10566000000E+00 0. -1.
        994   -1    0    0    0    0 -0.00000000000E+00 -0.00000000000E+00  0.11368683772E-12  0.17120000000E+03  0.17120000000E+03 0.  0.
         13    1    1    2    0    0  0.24004328999E+02 -0.80816937710E+00  0.45282378060E+01  0.24441298045E+02  0.10566000000E+00 0. -1.
        994    1    1    2    0    0 -0.38703270764E+02  0.34653294724E+02  0.30742406367E+02  0.18153051962E+03  0.17120000000E+03 0.  0.
        998    1    1    2    0    0  0.14698941765E+02 -0.33845125347E+02  0.14647293521E+04  0.14652281823E+04  0.10000000000E+02 0. -1.
</event>
<event>
 5    1  0.1360042E-008  0.3698733E+03  0.7957747E-01  0.3496473E+00
         13   -1    0    0    0    0  0.00000000000E+00  0.00000000000E+00  0.14999999963E+04  0.15000000000E+04  0.10566000000E+00 0.  1.
        994   -1    0    0    0    0 -0.00000000000E+00 -0.00000000000E+00  0.11368683772E-12  0.17120000000E+03  0.17120000000E+03 0.  0.
         13    1    1    2    0    0  0.10436365920E+02  0.47438703889E+02  0.12959421090E+03  0.13839804559E+03  0.10566000000E+00 0.  1.
        994    1    1    2    0    0  0.56310280395E+01 -0.19367082770E+02  0.10743698776E+02  0.17271843977E+03  0.17120000000E+03 0.  0.
        998    1    1    2    0    0 -0.16067393960E+02 -0.28071621119E+02  0.13596620866E+04  0.13600835146E+04  0.10000000000E+02 0.  1.
</event>
<event>
 5    1  0.1360042E-008  0.3726449E+03  0.7957747E-01  0.3483823E+00
         13   -1    0    0    0    0  0.00000000000E+00  0.00000000000E+00  0.14999999963E+04  0.15000000000E+04  0.10566000000E+00 0. -1.
        994   -1    0    0    0    0 -0.00000000000E+00 -0.00000000000E+00  0.11368683772E-12  0.17120000000E+03  0.17120000000E+03 0.  0.
         13    1    1    2    0    0  0.17264947034E+02  0.42160278122E+02  0.76668323445E+02  0.89183016496E+02  0.10566000000E+00 0. -1.
        994    1    1    2    0    0 -0.18176344607E+02 -0.38418540189E+02  0.18745527783E+02  0.17738996179E+03  0.17120000000E+03 0.  0.
        998    1    1    2    0    0  0.91139757242E+00 -0.37417379331E+01  0.14045861451E+04  0.14046270217E+04  0.10000000000E+02 0. -1.
</event>
<event>
 5    1  0.1360042E-008  0.3765022E+03  0.7957747E-01  0.3466531E+00
         13   -1    0    0    0    0  0.00000000000E+00  0.00000000000E+00  0.14999999963E+04  0.15000000000E+04  0.10566000000E+00 0.  1.
        994   -1    0    0    0    0 -0.00000000000E+00 -0.00000000000E+00  0.11368683772E-12  0.17120000000E+03  0.17120000000E+03 0.  0.
         13    1    1    2    0    0  0.63479843528E+01 -0.47269477784E+02  0.16853458184E+03  0.17515312408E+03  0.10566000000E+00 0.  1.
        994    1    1    2    0    0 -0.33008787605E+02  0.46045573976E+02  0.16843178805E+02  0.18111572989E+03  0.17120000000E+03 0.  0.
        998    1    1    2    0    0  0.26660803253E+02  0.12239038077E+01  0.13146222356E+04  0.13149311460E+04  0.10000000000E+02 0.  1.
</event>
<event>
 5    1  0.1360042E-008  0.3810041E+03  0.7957747E-01  0.3446798E+00
         13   -1    0    0    0    0  0.00000000000E+00  0.00000000000E+00  0.14999999963E+04  0.15000000000E+04  0.10566000000E+00 0.  1.
        994   -1    0    0    0    0 -0.00000000000E+00 -0.00000000000E+00  0.11368683772E-12  0.17120000000E+03  0.17120000000E+03 0.  0.
         13    1    1    2    0    0 -0.81162802129E+01  0.34928942727E+02  0.15765379442E+03  0.16168065779E+03  0.10566000000E+00 0.  1.
        994    1    1    2    0    0 -0.54629241066E+01 -0.39837961440E+02  0.90332758949E+01  0.17609073452E+03  0.17120000000E+03 0.  0.
        998    1    1    2    0    0  0.13579204320E+02  0.49090187136E+01  0.13333129260E+04  0.13334286077E+04  0.10000000000E+02 0.  1.
</event>
<event>
 5    1  0.1360042E-008  0.3854553E+03  0.7957747E-01  0.3427744E+00
         13   -1    0    0    0    0  0.00000000000E+00  0.00000000000E+00  0.14999999963E+04  0.15000000000E+04  0.10566000000E+00 0.  1.
        994   -1    0    0    0    0 -0.00000000000E+00 -0.00000000000E+00  0.11368683772E-12  0.17120000000E+03  0.17120000000E+03 0.  0.
         13    1    1    2    0    0  0.68755568647E+01  0.11114724823E+02  0.63188673144E+02  0.64526195981E+02  0.10566000000E+00 0.  1.
        994    1    1    2    0    0  0.11855034204E+01 -0.50797599285E+01  0.14936373023E+01  0.17128596070E+03  0.17120000000E+03 0.  0.
        998    1    1    2    0    0 -0.80610602851E+01 -0.60349648943E+01  0.14353176858E+04  0.14353878433E+04  0.10000000000E+02 0.  1.
</event>
<event>
 5    1  0.1360042E-008  0.3795985E+03  0.7957747E-01  0.3452909E+00
         13   -1    0    0    0    0  0.00000000000E+00  0.00000000000E+00  0.14999999963E+04  0.15000000000E+04  0.10566000000E+00 0. -1.
        994   -1    0    0    0    0 -0.00000000000E+00 -0.00000000000E+00  0.11368683772E-12  0.17120000000E+03  0.17120000000E+03 0.  0.
         13    1    1    2    0    0  0.17055669608E+01  0.59046630813E+02  0.31050758453E+03  0.31607654894E+03  0.10566000000E+00 0. -1.
        994    1    1    2    0    0 -0.11774123987E+02 -0.61996192154E+02  0.17782994296E+02  0.18332439206E+03  0.17120000000E+03 0.  0.
        998    1    1    2    0    0  0.10068557026E+02  0.29495613409E+01  0.11717094174E+04  0.11717990590E+04  0.10000000000E+02 0. -1.
</event>
<event>
 5    1  0.1360042E-008  0.3775324E+03  0.7957747E-01  0.3461974E+00
         13   -1    0    0    0    0  0.00000000000E+00  0.00000000000E+00  0.14999999963E+04  0.15000000000E+04  0.10566000000E+00 0. -1.
        994   -1    0    0    0    0 -0.00000000000E+00 -0.00000000000E+00  0.11368683772E-12  0.17120000000E+03  0.17120000000E+03 0.  0.
         13    1    1    2    0    0 -0.18697670624E+02 -0.31316986090E+01  0.32632217313E+02  0.37739676651E+02  0.10566000000E+00 0. -1.
        994    1    1    2    0    0  0.41265304207E+01 -0.43447341143E+02  0.11830690264E+02  0.17707090370E+03  0.17120000000E+03 0.  0.
        998    1    1    2    0    0  0.14571140204E+02  0.46579039752E+02  0.14555370887E+04  0.14563894196E+04  0.10000000000E+02 0. -1.
</event>
<event>
 5    1  0.1360042E-008  0.3775075E+03  0.7957747E-01  0.3462084E+00
         13   -1    0    0    0    0  0.00000000000E+00  0.00000000000E+00  0.14999999963E+04  0.15000000000E+04  0.10566000000E+00 0. -1.
        994   -1    0    0    0    0 -0.00000000000E+00 -0.00000000000E+00  0.11368683772E-12  0.17120000000E+03  0.17120000000E+03 0.  0.
         13    1    1    2    0    0  0.44682002291E+02  0.22350160826E+01  0.18926645714E+03  0.19448208038E+03  0.10566000000E+00 0. -1.
        994    1    1    2    0    0 -0.20623414129E+02 -0.23771255093E+02  0.87422221597E+01  0.17428787745E+03  0.17120000000E+03 0.  0.
        998    1    1    2    0    0 -0.24058588162E+02  0.21536239010E+02  0.13019913170E+04  0.13024300422E+04  0.10000000000E+02 0. -1.
</event>
<event>
 5    1  0.1360042E-008  0.3812351E+03  0.7957747E-01  0.3445798E+00
         13   -1    0    0    0    0  0.00000000000E+00  0.00000000000E+00  0.14999999963E+04  0.15000000000E+04  0.10566000000E+00 0.  1.
        994   -1    0    0    0    0 -0.00000000000E+00 -0.00000000000E+00  0.11368683772E-12  0.17120000000E+03  0.17120000000E+03 0.  0.
         13    1    1    2    0    0  0.32708528068E+01  0.34705435594E+02  0.20672454407E+03  0.20964306338E+03  0.10566000000E+00 0.  1.
        994    1    1    2    0    0  0.10944416071E+02  0.49198087893E+00  0.39106744216E+01  0.17159474253E+03  0.17120000000E+03 0.  0.
        998    1    1    2    0    0 -0.14215268878E+02 -0.35197416473E+02  0.12893647778E+04  0.12899621941E+04  0.10000000000E+02 0.  1.
</event>
<event>
 5    1  0.1360042E-008  0.3837916E+03  0.7957747E-01  0.3434813E+00
         13   -1    0    0    0    0  0.00000000000E+00  0.00000000000E+00  0.14999999963E+04  0.15000000000E+04  0.10566000000E+00 0.  1.
        994   -1    0    0    0    0 -0.00000000000E+00 -0.00000000000E+00  0.11368683772E-12  0.17120000000E+03  0.17120000000E+03 0.  0.
         13    1    1    2    0    0 -0.10038498882E+02  0.12811142698E+02  0.46415608515E+02  0.49186550142E+02  0.10566000000E+00 0.  1.
        994    1    1    2    0    0  0.50354393630E+02 -0.39997965295E+02  0.16006291249E+02  0.18357843976E+03  0.17120000000E+03 0.  0.
        998    1    1    2    0    0 -0.40315894747E+02  0.27186822597E+02  0.14375780965E+04  0.14384350101E+04  0.10000000000E+02 0.  1.
</event>
<event>
 5    1  0.1360042E-008  0.3758865E+03  0.7957747E-01  0.3469268E+00
         13   -1    0    0    0    0  0.00000000000E+00  0.00000000000E+00  0.14999999963E+04  0.15000000000E+04  0.10566000000E+00 0.  1.
        994   -1    0    0    0    0 -0.00000000000E+00 -0.00000000000E+00  0.11368683772E-12  0.17120000000E+03  0.17120000000E+03 0.  0.
         13    1    1    2    0    0  0.10298459698E+02 -0.54881101135E+02  0.21755965644E+03  0.22461123927E+03  0.10566000000E+00 0.  1.
        994    1    1    2    0    0 -0.16280225290E+00  0.54046223728E+02  0.16188767587E+02  0.18025686395E+03  0.17120000000E+03 0.  0.
        998    1    1    2    0    0 -0.10135657446E+02  0.83487740733E+00  0.12662515723E+04  0.12663318968E+04  0.10000000000E+02 0.  1.
</event>
<event>
 5    1  0.1360042E-008  0.3785206E+03  0.7957747E-01  0.3457626E+00
         13   -1    0    0    0    0  0.00000000000E+00  0.00000000000E+00  0.14999999963E+04  0.15000000000E+04  0.10566000000E+00 0.  1.
        994   -1    0    0    0    0 -0.00000000000E+00 -0.00000000000E+00  0.11368683772E-12  0.17120000000E+03  0.17120000000E+03 0.  0.
         13    1    1    2    0    0 -0.46358770469E+02  0.13678713817E+02  0.20633481100E+03  0.21192052332E+03  0.10566000000E+00 0.  1.
        994    1    1    2    0    0  0.45680124404E+02 -0.16476673830E+02  0.12844867110E+02  0.17841688585E+03  0.17120000000E+03 0.  0.
        998    1    1    2    0    0  0.67864606475E+00  0.27979600121E+01  0.12808203182E+04  0.12808625908E+04  0.10000000000E+02 0.  1.
</event>
<event>
 5    1  0.1360042E-008  0.3720495E+03  0.7957747E-01  0.3486524E+00
         13   -1    0    0    0    0  0.00000000000E+00  0.00000000000E+00  0.14999999963E+04  0.15000000000E+04  0.10566000000E+00 0. -1.
        994   -1    0    0    0    0 -0.00000000000E+00 -0.00000000000E+00  0.11368683772E-12  0.17120000000E+03  0.17120000000E+03 0.  0.
         13    1    1    2    0    0 -0.18995130869E+02  0.14349303935E+02  0.30303936313E+02  0.38536440420E+02  0.10566000000E+00 0. -1.
        994    1    1    2    0    0  0.12233994075E+02 -0.29141501490E+02  0.11639028861E+02  0.17448153115E+03  0.17120000000E+03 0.  0.
        998    1    1    2    0    0  0.67611367939E+01  0.14792197555E+02  0.14580570311E+04  0.14581820284E+04  0.10000000000E+02 0. -1.
</event>
<event>
 5    1  0.1360042E-008  0.3828739E+03  0.7957747E-01  0.3438740E+00
         13   -1    0    0    0    0  0.00000000000E+00  0.00000000000E+00  0.14999999963E+04  0.15000000000E+04  0.10566000000E+00 0.  1.
        994   -1    0    0    0    0 -0.00000000000E+00 -0.00000000000E+00  0.11368683772E-12  0.17120000000E+03  0.17120000000E+03 0.  0.
         13    1    1    2    0    0  0.16503463030E+02  0.45928457798E+01  0.50572117793E+02  0.53394838575E+02  0.10566000000E+00 0.  1.
        994    1    1    2    0    0 -0.13608405280E+02 -0.47210874433E+02  0.10724973207E+02  0.17843351818E+03  0.17120000000E+03 0.  0.
        998    1    1    2    0    0 -0.28950577498E+01  0.42618028653E+02  0.14387029053E+04  0.14393716432E+04  0.10000000000E+02 0.  1.
</event>
<event>
 5    1  0.1360042E-008  0.3771790E+03  0.7957747E-01  0.3463535E+00
         13   -1    0    0    0    0  0.00000000000E+00  0.00000000000E+00  0.14999999963E+04  0.15000000000E+04  0.10566000000E+00 0. -1.
        994   -1    0    0    0    0 -0.00000000000E+00 -0.00000000000E+00  0.11368683772E-12  0.17120000000E+03  0.17120000000E+03 0.  0.
         13    1    1    2    0    0  0.18324557330E+02  0.28289175965E+02  0.95800162881E+02  0.10155663075E+03  0.10566000000E+00 0. -1.
        994    1    1    2    0    0 -0.20608188136E+02 -0.23010676820E+02  0.87905487271E+01  0.17418640134E+03  0.17120000000E+03 0.  0.
        998    1    1    2    0    0  0.22836308059E+01 -0.52784991446E+01  0.13954092847E+04  0.13954569679E+04  0.10000000000E+02 0. -1.
</event>
<event>
 5    1  0.1360042E-008  0.3799098E+03  0.7957747E-01  0.3451551E+00
         13   -1    0    0    0    0  0.00000000000E+00  0.00000000000E+00  0.14999999963E+04  0.15000000000E+04  0.10566000000E+00 0. -1.
        994   -1    0    0    0    0 -0.00000000000E+00 -0.00000000000E+00  0.11368683772E-12  0.17120000000E+03  0.17120000000E+03 0.  0.
         13    1    1    2    0    0  0.80817719963E+01 -0.23381009237E+02  0.69129296226E+02  0.73422458364E+02  0.10566000000E+00 0. -1.
        994    1    1    2    0    0  0.66921308046E+01  0.28018807208E+02  0.69585422341E+01  0.17374607760E+03  0.17120000000E+03 0.  0.
        998    1    1    2    0    0 -0.14773902801E+02 -0.46377979712E+01  0.14239121578E+04  0.14240314640E+04  0.10000000000E+02 0. -1.
</event>
<event>
 5    1  0.1360042E-008  0.3836442E+03  0.7957747E-01  0.3435443E+00
         13   -1    0    0    0    0  0.00000000000E+00  0.00000000000E+00  0.14999999963E+04  0.15000000000E+04  0.10566000000E+00 0. -1.
        994   -1    0    0    0    0 -0.00000000000E+00 -0.00000000000E+00  0.11368683772E-12  0.17120000000E+03  0.17120000000E+03 0.  0.
         13    1    1    2    0    0  0.97197890190E+01 -0.18495736225E+02  0.92556507952E+02  0.94885641092E+02  0.10566000000E+00 0. -1.
        994    1    1    2    0    0 -0.25407551539E+01  0.16570297985E+02  0.32336046949E+01  0.17204919765E+03  0.17120000000E+03 0.  0.
        998    1    1    2    0    0 -0.71790338651E+01  0.19254382399E+01  0.14042098836E+04  0.14042651613E+04  0.10000000000E+02 0. -1.
</event>
<event>
 5    1  0.1360042E-008  0.3758793E+03  0.7957747E-01  0.3469300E+00
         13   -1    0    0    0    0  0.00000000000E+00  0.00000000000E+00  0.14999999963E+04  0.15000000000E+04  0.10566000000E+00 0.  1.
        994   -1    0    0    0    0 -0.00000000000E+00 -0.00000000000E+00  0.11368683772E-12  0.17120000000E+03  0.17120000000E+03 0.  0.
         13    1    1    2    0    0 -0.15056466577E+02  0.36764557070E+02  0.11630935198E+03  0.12290730802E+03  0.10566000000E+00 0.  1.
        994    1    1    2    0    0  0.14037897194E+02 -0.36008386697E+02  0.11306951887E+02  0.17587198080E+03  0.17120000000E+03 0.  0.
        998    1    1    2    0    0  0.10185693831E+01 -0.75617037373E+00  0.13723836924E+04  0.13724207112E+04  0.10000000000E+02 0.  0.
</event>
<event>
 5    1  0.1360042E-008  0.3690773E+03  0.7957747E-01  0.3500142E+00
         13   -1    0    0    0    0  0.00000000000E+00  0.00000000000E+00  0.14999999963E+04  0.15000000000E+04  0.10566000000E+00 0.  1.
        994   -1    0    0    0    0 -0.00000000000E+00 -0.00000000000E+00  0.11368683772E-12  0.17120000000E+03  0.17120000000E+03 0.  0.
         13    1    1    2    0    0 -0.27363541061E+02  0.39115649524E+02  0.10255940704E+03  0.11312488919E+03  0.10566000000E+00 0.  1.
        994    1    1    2    0    0  0.16756736530E+02 -0.34149096335E+02  0.15510868185E+02  0.17605958091E+03  0.17120000000E+03 0.  0.
        998    1    1    2    0    0  0.10606804530E+02 -0.49665531892E+01  0.13819297211E+04  0.13820155299E+04  0.10000000000E+02 0.  1.
</event>
<event>
 5    1  0.1360042E-008  0.3850716E+03  0.7957747E-01  0.3429369E+00
         13   -1    0    0    0    0  0.00000000000E+00  0.00000000000E+00  0.14999999963E+04  0.15000000000E+04  0.10566000000E+00 0. -1.
        994   -1    0    0    0    0 -0.00000000000E+00 -0.00000000000E+00  0.11368683772E-12  0.17120000000E+03  0.17120000000E+03 0.  0.
         13    1    1    2    0    0  0.27010265608E+01  0.15720472144E+02  0.83877420778E+02  0.85380686747E+02  0.10566000000E+00 0. -1.
        994    1    1    2    0    0 -0.30776893244E+01 -0.32229903654E+01  0.16599054548E+01  0.17126603611E+03  0.17120000000E+03 0.  0.
        998    1    1    2    0    0  0.37666276362E+00 -0.12497481779E+02  0.14144626700E+04  0.14145532771E+04  0.10000000000E+02 0. -1.
</event>
<event>
 5    1  0.1360042E-008  0.3859134E+03  0.7957747E-01  0.3425807E+00
         13   -1    0    0    0    0  0.00000000000E+00  0.00000000000E+00  0.14999999963E+04  0.15000000000E+04  0.10566000000E+00 0.  1.
        994   -1    0    0    0    0 -0.00000000000E+00 -0.00000000000E+00  0.11368683772E-12  0.17120000000E+03  0.17120000000E+03 0.  0.
         13    1    1    2    0    0 -0.11141979048E+02 -0.53170776086E+01  0.66899414775E+02  0.68029095780E+02  0.10566000000E+00 0.  1.
        994    1    1    2    0    0  0.58916971714E+01 -0.22199151159E+00  0.12912968828E+01  0.17130635955E+03  0.17120000000E+03 0.  0.
        998    1    1    2    0    0  0.52502818762E+01  0.55390691202E+01  0.14318092846E+04  0.14318645447E+04  0.10000000000E+02 0.  1.
</event>
<event>
 5    1  0.1360042E-008  0.3801702E+03  0.7957747E-01  0.3450418E+00
         13   -1    0    0    0    0  0.00000000000E+00  0.00000000000E+00  0.14999999963E+04  0.15000000000E+04  0.10566000000E+00 0.  1.
        994   -1    0    0    0    0 -0.00000000000E+00 -0.00000000000E+00  0.11368683772E-12  0.17120000000E+03  0.17120000000E+03 0.  0.
         13    1    1    2    0    0 -0.12373695253E+02 -0.65596930543E+01  0.22195298280E+02  0.26244624915E+02  0.10566000000E+00 0.  1.
        994    1    1    2    0    0  0.14716767127E+02  0.58461904222E+01  0.48855067325E+01  0.17200020161E+03  0.17120000000E+03 0.  0.
        998    1    1    2    0    0 -0.23430718745E+01  0.71350263211E+00  0.14729191913E+04  0.14729551735E+04  0.10000000000E+02 0.  1.
</event>
<event>
 5    1  0.1360042E-008  0.3856010E+03  0.7957747E-01  0.3427127E+00
         13   -1    0    0    0    0  0.00000000000E+00  0.00000000000E+00  0.14999999963E+04  0.15000000000E+04  0.10566000000E+00 0.  1.
        994   -1    0    0    0    0 -0.00000000000E+00 -0.00000000000E+00  0.11368683772E-12  0.17120000000E+03  0.17120000000E+03 0.  0.
         13    1    1    2    0    0 -0.11508727387E+02 -0.59584547601E+01  0.63446297229E+02  0.64756449758E+02  0.10566000000E+00 0.  1.
        994    1    1    2    0    0 -0.42471274170E+01  0.29227205864E+02  0.42002834600E+01  0.17377960190E+03  0.17120000000E+03 0.  0.
        998    1    1    2    0    0  0.15755854804E+02 -0.23268751104E+02  0.14323534156E+04  0.14326639483E+04  0.10000000000E+02 0.  1.
</event>
<event>
 5    1  0.1360042E-008  0.3774034E+03  0.7957747E-01  0.3462543E+00
         13   -1    0    0    0    0  0.00000000000E+00  0.00000000000E+00  0.14999999963E+04  0.15000000000E+04  0.10566000000E+00 0.  1.
        994   -1    0    0    0    0 -0.00000000000E+00 -0.00000000000E+00  0.11368683772E-12  0.17120000000E+03  0.17120000000E+03 0.  0.
         13    1    1    2    0    0 -0.92850131842E+01  0.77788987374E+01  0.11008201217E+02  0.16368090709E+02  0.10566000000E+00 0.  1.
        994    1    1    2    0    0  0.11955186497E+02 -0.77084013309E+00  0.59337596846E+01  0.17172119899E+03  0.17120000000E+03 0.  0.
        998    1    1    2    0    0 -0.26701733133E+01 -0.70080586043E+01  0.14830580354E+04  0.14831107103E+04  0.10000000000E+02 0.  1.
</event>
<event>
 5    1  0.1360042E-008  0.2391869E+03  0.7957747E-01  0.4456080E+00
         13   -1    0    0    0    0  0.00000000000E+00  0.00000000000E+00  0.14999999963E+04  0.15000000000E+04  0.10566000000E+00 0. -1.
        994   -1    0    0    0    0 -0.00000000000E+00 -0.00000000000E+00  0.11368683772E-12  0.17120000000E+03  0.17120000000E+03 0.  0.
         13    1    1    2    0    0  0.10279711475E+03  0.10791876037E+03  0.57520558264E+03  0.59420129511E+03  0.10566000000E+00 0. -1.
        994    1    1    2    0    0  0.12776369724E+03 -0.75402550646E+02  0.15963008757E+03  0.27712869182E+03  0.17120000000E+03 0.  0.
        998    1    1    2    0    0 -0.23056081199E+03 -0.32516209720E+02  0.76516432607E+03  0.79987001307E+03  0.10000000000E+02 0. -1.
</event>
<event>
 5    1  0.1360042E-008  0.3844679E+03  0.7957747E-01  0.3431932E+00
         13   -1    0    0    0    0  0.00000000000E+00  0.00000000000E+00  0.14999999963E+04  0.15000000000E+04  0.10566000000E+00 0. -1.
        994   -1    0    0    0    0 -0.00000000000E+00 -0.00000000000E+00  0.11368683772E-12  0.17120000000E+03  0.17120000000E+03 0.  0.
         13    1    1    2    0    0  0.11411587444E+02  0.14241254450E+02  0.10341079743E+03  0.10500877032E+03  0.10566000000E+00 0. -1.
        994    1    1    2    0    0  0.49306039398E-01  0.12448457578E+02  0.24052099515E+01  0.17166884272E+03  0.17120000000E+03 0.  0.
        998    1    1    2    0    0 -0.11460893484E+02 -0.26689712028E+02  0.13941839889E+04  0.13945223870E+04  0.10000000000E+02 0. -1.
</event>
<event>
 5    1  0.1360042E-008  0.3815173E+03  0.7957747E-01  0.3444578E+00
         13   -1    0    0    0    0  0.00000000000E+00  0.00000000000E+00  0.14999999963E+04  0.15000000000E+04  0.10566000000E+00 0.  1.
        994   -1    0    0    0    0 -0.00000000000E+00 -0.00000000000E+00  0.11368683772E-12  0.17120000000E+03  0.17120000000E+03 0.  0.
         13    1    1    2    0    0  0.22508004870E+01  0.29015032037E+02  0.12195348157E+03  0.12537783304E+03  0.10566000000E+00 0.  1.
        994    1    1    2    0    0  0.13780343731E+02 -0.22315964977E+02  0.56606360102E+01  0.17328988132E+03  0.17120000000E+03 0.  0.
        998    1    1    2    0    0 -0.16031144218E+02 -0.66990670597E+01  0.13723858787E+04  0.13725322856E+04  0.10000000000E+02 0.  1.
</event>
<event>
 5    1  0.1360042E-008  0.3845855E+03  0.7957747E-01  0.3431432E+00
         13   -1    0    0    0    0  0.00000000000E+00  0.00000000000E+00  0.14999999963E+04  0.15000000000E+04  0.10566000000E+00 0.  1.
        994   -1    0    0    0    0 -0.00000000000E+00 -0.00000000000E+00  0.11368683772E-12  0.17120000000E+03  0.17120000000E+03 0.  0.
         13    1    1    2    0    0 -0.95070826838E+01 -0.36404597797E+01  0.27969521334E+02  0.29764792226E+02  0.10566000000E+00 0.  1.
        994    1    1    2    0    0  0.55734905010E+01  0.93979802811E+00  0.19412994301E+01  0.17130427800E+03  0.17120000000E+03 0.  0.
        998    1    1    2    0    0  0.39335921828E+01  0.27006617516E+01  0.14700891755E+04  0.14701309298E+04  0.10000000000E+02 0.  0.
</event>
<event>
 5    1  0.1360042E-008  0.3322864E+03  0.7957747E-01  0.3689466E+00
         13   -1    0    0    0    0  0.00000000000E+00  0.00000000000E+00  0.14999999963E+04  0.15000000000E+04  0.10566000000E+00 0. -1.
        994   -1    0    0    0    0 -0.00000000000E+00 -0.00000000000E+00  0.11368683772E-12  0.17120000000E+03  0.17120000000E+03 0.  0.
         13    1    1    2    0    0 -0.15815245497E+03  0.15588299985E+03  0.91478110470E+03  0.94134807023E+03  0.10566000000E+00 0. -1.
        994    1    1    2    0    0  0.12195626237E+03 -0.12329266486E+03  0.13834411860E+03  0.28021946094E+03  0.17120000000E+03 0.  0.
        998    1    1    2    0    0  0.36196192600E+02 -0.32590334984E+02  0.44687477298E+03  0.44963246882E+03  0.10000000000E+02 0. -1.
</event>
<event>
 5    1  0.1360042E-008  0.3854569E+03  0.7957747E-01  0.3427737E+00
         13   -1    0    0    0    0  0.00000000000E+00  0.00000000000E+00  0.14999999963E+04  0.15000000000E+04  0.10566000000E+00 0.  1.
        994   -1    0    0    0    0 -0.00000000000E+00 -0.00000000000E+00  0.11368683772E-12  0.17120000000E+03  0.17120000000E+03 0.  0.
         13    1    1    2    0    0  0.11011823125E+02  0.80195892952E+01  0.64568340867E+02  0.65989816391E+02  0.10566000000E+00 0.  1.
        994    1    1    2    0    0 -0.11318787651E+02 -0.68990685541E+01  0.19806568659E+01  0.17172383382E+03  0.17120000000E+03 0.  0.
        998    1    1    2    0    0  0.30696452641E+00 -0.11205207411E+01  0.14334509985E+04  0.14334863498E+04  0.10000000000E+02 0.  1.
</event>
<event>
 5    1  0.1360042E-008  0.3719896E+03  0.7957747E-01  0.3486797E+00
         13   -1    0    0    0    0  0.00000000000E+00  0.00000000000E+00  0.14999999963E+04  0.15000000000E+04  0.10566000000E+00 0. -1.
        994   -1    0    0    0    0 -0.00000000000E+00 -0.00000000000E+00  0.11368683772E-12  0.17120000000E+03  0.17120000000E+03 0.  0.
         13    1    1    2    0    0  0.27059602921E+02  0.13692560250E+02  0.52595999507E+02  0.60712919915E+02  0.10566000000E+00 0. -1.
        994    1    1    2    0    0 -0.36703542307E+02  0.27697719900E+02  0.15528703272E+02  0.17794632430E+03  0.17120000000E+03 0.  0.
        998    1    1    2    0    0  0.96439393851E+01 -0.41390280149E+02  0.14318752935E+04  0.14325407558E+04  0.10000000000E+02 0. -1.
</event>
<event>
 5    1  0.1360042E-008  0.3822686E+03  0.7957747E-01  0.3441340E+00
         13   -1    0    0    0    0  0.00000000000E+00  0.00000000000E+00  0.14999999963E+04  0.15000000000E+04  0.10566000000E+00 0.  1.
        994   -1    0    0    0    0 -0.00000000000E+00 -0.00000000000E+00  0.11368683772E-12  0.17120000000E+03  0.17120000000E+03 0.  0.
         13    1    1    2    0    0  0.12723648901E+02  0.32131167890E+01  0.27899046263E+02  0.30831531056E+02  0.10566000000E+00 0.  1.
        994    1    1    2    0    0 -0.63676213069E+01 -0.17368554141E+01  0.31369075970E+01  0.17135589706E+03  0.17120000000E+03 0.  0.
        998    1    1    2    0    0 -0.63560275941E+01 -0.14762613748E+01  0.14689640424E+04  0.14690125719E+04  0.10000000000E+02 0.  1.
</event>
<event>
 5    1  0.1360042E-008  0.3838711E+03  0.7957747E-01  0.3434474E+00
         13   -1    0    0    0    0  0.00000000000E+00  0.00000000000E+00  0.14999999963E+04  0.15000000000E+04  0.10566000000E+00 0. -1.
        994   -1    0    0    0    0 -0.00000000000E+00 -0.00000000000E+00  0.11368683772E-12  0.17120000000E+03  0.17120000000E+03 0.  0.
         13    1    1    2    0    0 -0.15753036664E+02 -0.87239886035E+01  0.68950985283E+02  0.71263705186E+02  0.10566000000E+00 0. -1.
        994    1    1    2    0    0  0.16283883656E+02  0.18160169513E+02  0.41579125153E+01  0.17297885669E+03  0.17120000000E+03 0.  0.
        998    1    1    2    0    0 -0.53084699208E+00 -0.94361809096E+01  0.14268910985E+04  0.14269574381E+04  0.10000000000E+02 0. -1.
</event>
<event>
 5    1  0.1360042E-008  0.3701308E+03  0.7957747E-01  0.3495290E+00
         13   -1    0    0    0    0  0.00000000000E+00  0.00000000000E+00  0.14999999963E+04  0.15000000000E+04  0.10566000000E+00 0.  1.
        994   -1    0    0    0    0 -0.00000000000E+00 -0.00000000000E+00  0.11368683772E-12  0.17120000000E+03  0.17120000000E+03 0.  0.
         13    1    1    2    0    0  0.15725126908E+02 -0.39522335395E+02  0.96490952012E+02  0.10545050780E+03  0.10566000000E+00 0.  1.
        994    1    1    2    0    0  0.81716709901E+00  0.24786996823E+02  0.11329309533E+02  0.17335759640E+03  0.17120000000E+03 0.  0.
        998    1    1    2    0    0 -0.16542294007E+02  0.14735338571E+02  0.13921797347E+04  0.13923918958E+04  0.10000000000E+02 0.  1.
</event>
<event>
 5    1  0.1360042E-008  0.3793850E+03  0.7957747E-01  0.3453841E+00
         13   -1    0    0    0    0  0.00000000000E+00  0.00000000000E+00  0.14999999963E+04  0.15000000000E+04  0.10566000000E+00 0. -1.
        994   -1    0    0    0    0 -0.00000000000E+00 -0.00000000000E+00  0.11368683772E-12  0.17120000000E+03  0.17120000000E+03 0.  0.
         13    1    1    2    0    0  0.26768932688E+02  0.89647804739E+02  0.41180502892E+03  0.42229929867E+03  0.10566000000E+00 0. -1.
        994    1    1    2    0    0  0.18690427017E+02  0.15215070351E+01  0.17262213900E+02  0.17308688880E+03  0.17120000000E+03 0.  0.
        998    1    1    2    0    0 -0.45459359705E+02 -0.91169311774E+02  0.10709327535E+04  0.10758138125E+04  0.10000000000E+02 0. -1.
</event>
<event>
 5    1  0.1360042E-008  0.3858996E+03  0.7957747E-01  0.3425866E+00
         13   -1    0    0    0    0  0.00000000000E+00  0.00000000000E+00  0.14999999963E+04  0.15000000000E+04  0.10566000000E+00 0.  1.
        994   -1    0    0    0    0 -0.00000000000E+00 -0.00000000000E+00  0.11368683772E-12  0.17120000000E+03  0.17120000000E+03 0.  0.
         13    1    1    2    0    0  0.12115384769E+02  0.20130635889E+00  0.63666036851E+02  0.64808938309E+02  0.10566000000E+00 0.  1.
        994    1    1    2    0    0 -0.58108228920E+01 -0.17583602531E+01  0.13050145664E+01  0.17131258143E+03  0.17120000000E+03 0.  0.
        998    1    1    2    0    0 -0.63045618771E+01  0.15570538942E+01  0.14350289449E+04  0.14350784803E+04  0.10000000000E+02 0.  1.
</event>
<event>
 5    1  0.1360042E-008  0.2790933E+03  0.7957747E-01  0.4057591E+00
         13   -1    0    0    0    0  0.00000000000E+00  0.00000000000E+00  0.14999999963E+04  0.15000000000E+04  0.10566000000E+00 0. -1.
        994   -1    0    0    0    0 -0.00000000000E+00 -0.00000000000E+00  0.11368683772E-12  0.17120000000E+03  0.17120000000E+03 0.  0.
         13    1    1    2    0    0 -0.12427909600E+03 -0.10878991654E+03  0.52425012940E+03  0.54965329889E+03  0.10566000000E+00 0. -1.
        994    1    1    2    0    0  0.12037517858E+03  0.11040945704E+03  0.11923996975E+03  0.26496800223E+03  0.17120000000E+03 0.  0.
        998    1    1    2    0    0  0.39039174191E+01 -0.16195405059E+01  0.85650989713E+03  0.85657869888E+03  0.10000000000E+02 0. -1.
</event>
<event>
 5    1  0.1360042E-008  0.3836692E+03  0.7957747E-01  0.3435336E+00
         13   -1    0    0    0    0  0.00000000000E+00  0.00000000000E+00  0.14999999963E+04  0.15000000000E+04  0.10566000000E+00 0.  1.
        994   -1    0    0    0    0 -0.00000000000E+00 -0.00000000000E+00  0.11368683772E-12  0.17120000000E+03  0.17120000000E+03 0.  0.
         13    1    1    2    0    0 -0.16743433737E+02 -0.13479260175E+02  0.10729098030E+03  0.10942302612E+03  0.10566000000E+00 0.  1.
        994    1    1    2    0    0  0.11122841087E+02 -0.75138311684E+01  0.28875995871E+01  0.17174968263E+03  0.17120000000E+03 0.  0.
        998    1    1    2    0    0  0.56205926500E+01  0.20993091343E+02  0.13898214164E+04  0.13900272912E+04  0.10000000000E+02 0.  1.
</event>
<event>
 5    1  0.1360042E-008  0.3806951E+03  0.7957747E-01  0.3448138E+00
         13   -1    0    0    0    0  0.00000000000E+00  0.00000000000E+00  0.14999999963E+04  0.15000000000E+04  0.10566000000E+00 0.  1.
        994   -1    0    0    0    0 -0.00000000000E+00 -0.00000000000E+00  0.11368683772E-12  0.17120000000E+03  0.17120000000E+03 0.  0.
         13    1    1    2    0    0 -0.18148522334E+01  0.98719848858E+01  0.11629028332E+02  0.15362136511E+02  0.10566000000E+00 0.  1.
        994    1    1    2    0    0 -0.48461733319E+01 -0.97958656287E+01  0.41811778881E+01  0.17159943656E+03  0.17120000000E+03 0.  0.
        998    1    1    2    0    0  0.66610255653E+01 -0.76119257091E-01  0.14841897901E+04  0.14842384269E+04  0.10000000000E+02 0.  1.
</event>
<event>
 5    1  0.1360042E-008  0.3803060E+03  0.7957747E-01  0.3449827E+00
         13   -1    0    0    0    0  0.00000000000E+00  0.00000000000E+00  0.14999999963E+04  0.15000000000E+04  0.10566000000E+00 0. -1.
        994   -1    0    0    0    0 -0.00000000000E+00 -0.00000000000E+00  0.11368683772E-12  0.17120000000E+03  0.17120000000E+03 0.  0.
         13    1    1    2    0    0 -0.43393998171E+01  0.14839859512E+02  0.28437785042E+02  0.32369284874E+02  0.10566000000E+00 0. -1.
        994    1    1    2    0    0  0.56685631888E+01 -0.96463996442E+01  0.43969250250E+01  0.17162155629E+03  0.17120000000E+03 0.  0.
        998    1    1    2    0    0 -0.13291633717E+01 -0.51934598674E+01  0.14671652862E+04  0.14672091588E+04  0.10000000000E+02 0. -1.
</event>
<event>
 5    1  0.1360042E-008  0.3747962E+03  0.7957747E-01  0.3474135E+00
         13   -1    0    0    0    0  0.00000000000E+00  0.00000000000E+00  0.14999999963E+04  0.15000000000E+04  0.10566000000E+00 0. -1.
        994   -1    0    0    0    0 -0.00000000000E+00 -0.00000000000E+00  0.11368683772E-12  0.17120000000E+03  0.17120000000E+03 0.  0.
         13    1    1    2    0    0 -0.57392857934E+02  0.50225379616E+02  0.20282231689E+03  0.21668740686E+03  0.10566000000E+00 0. -1.
        994    1    1    2    0    0  0.49077466518E+02 -0.27664045845E+02  0.24870828793E+02  0.18193926260E+03  0.17120000000E+03 0.  0.
        998    1    1    2    0    0  0.83153914162E+01 -0.22561333770E+02  0.12723068506E+04  0.12725733305E+04  0.10000000000E+02 0. -1.
</event>
<event>
 5    1  0.1379385E-008  0.3845689E+03  0.7957747E-01  0.3431503E+00
         13   -1    0    0    0    0  0.00000000000E+00  0.00000000000E+00  0.14999999963E+04  0.15000000000E+04  0.10566000000E+00 0.  1.
        994   -1    0    0    0    0 -0.00000000000E+00 -0.00000000000E+00  0.11368683772E-12  0.17120000000E+03  0.17120000000E+03 0.  0.
         13    1    1    2    0    0 -0.23805937222E+01  0.11398188392E+02  0.37599914311E+02  0.39361791694E+02  0.10566000000E+00 0.  1.
        994    1    1    2    0    0  0.36577167584E+01 -0.28406509308E+00  0.18886726303E+01  0.17124972020E+03  0.17120000000E+03 0.  0.
        998    1    1    2    0    0 -0.12771230362E+01 -0.11114123299E+02  0.14605114093E+04  0.14605884881E+04  0.10000000000E+02 0.  1.
</event>
<event>
 5    1  0.1360042E-008  0.3732902E+03  0.7957747E-01  0.3480905E+00
         13   -1    0    0    0    0  0.00000000000E+00  0.00000000000E+00  0.14999999963E+04  0.15000000000E+04  0.10566000000E+00 0. -1.
        994   -1    0    0    0    0 -0.00000000000E+00 -0.00000000000E+00  0.11368683772E-12  0.17120000000E+03  0.17120000000E+03 0.  0.
         13    1    1    2    0    0  0.15614232620E+02  0.37070833865E+02  0.10963032236E+03  0.11677700856E+03  0.10566000000E+00 0. -1.
        994    1    1    2    0    0 -0.55085896097E+01 -0.11754514939E+02  0.81357015168E+01  0.17188409705E+03  0.17120000000E+03 0.  0.
        998    1    1    2    0    0 -0.10105643010E+02 -0.25316318926E+02  0.13822339724E+04  0.13825388944E+04  0.10000000000E+02 0. -1.
</event>
<event>
 5    1  0.1360042E-008  0.3836998E+03  0.7957747E-01  0.3435205E+00
         13   -1    0    0    0    0  0.00000000000E+00  0.00000000000E+00  0.14999999963E+04  0.15000000000E+04  0.10566000000E+00 0.  1.
        994   -1    0    0    0    0 -0.00000000000E+00 -0.00000000000E+00  0.11368683772E-12  0.17120000000E+03  0.17120000000E+03 0.  0.
         13    1    1    2    0    0 -0.50862958454E+01 -0.10921373416E+02  0.32144882916E+02  0.34328580869E+02  0.10566000000E+00 0.  1.
        994    1    1    2    0    0 -0.40204893996E+01  0.26114340563E+01  0.23529400535E+01  0.17128327487E+03  0.17120000000E+03 0.  0.
        998    1    1    2    0    0  0.91067852450E+01  0.83099393602E+01  0.14655021733E+04  0.14655881443E+04  0.10000000000E+02 0.  1.
</event>
<event>
 5    1  0.1360042E-008  0.3789744E+03  0.7957747E-01  0.3455636E+00
         13   -1    0    0    0    0  0.00000000000E+00  0.00000000000E+00  0.14999999963E+04  0.15000000000E+04  0.10566000000E+00 0.  1.
        994   -1    0    0    0    0 -0.00000000000E+00 -0.00000000000E+00  0.11368683772E-12  0.17120000000E+03  0.17120000000E+03 0.  0.
         13    1    1    2    0    0 -0.49891662907E+01 -0.15331929502E+02  0.27378098754E+02  0.31773122257E+02  0.10566000000E+00 0.  1.
        994    1    1    2    0    0 -0.70206482770E+01 -0.45258283660E+01  0.48858123327E+01  0.17147327426E+03  0.17120000000E+03 0.  0.
        998    1    1    2    0    0  0.12009814568E+02  0.19857757868E+02  0.14677360852E+04  0.14679536035E+04  0.10000000000E+02 0.  1.
</event>
<event>
 5    1  0.1360042E-008  0.3851765E+03  0.7957747E-01  0.3428924E+00
         13   -1    0    0    0    0  0.00000000000E+00  0.00000000000E+00  0.14999999963E+04  0.15000000000E+04  0.10566000000E+00 0. -1.
        994   -1    0    0    0    0 -0.00000000000E+00 -0.00000000000E+00  0.11368683772E-12  0.17120000000E+03  0.17120000000E+03 0.  0.
         13    1    1    2    0    0  0.78228593951E+01 -0.15105536239E+02  0.93657269295E+02  0.95189650750E+02  0.10566000000E+00 0. -1.
        994    1    1    2    0    0 -0.82759221140E+01  0.85584148457E+01  0.20085220811E+01  0.17162520652E+03  0.17120000000E+03 0.  0.
        998    1    1    2    0    0  0.45306271890E+00  0.65471213937E+01  0.14043342049E+04  0.14043851427E+04  0.10000000000E+02 0. -1.
</event>
<event>
 5    1  0.1360042E-008  0.3717684E+03  0.7957747E-01  0.3487803E+00
         13   -1    0    0    0    0  0.00000000000E+00  0.00000000000E+00  0.14999999963E+04  0.15000000000E+04  0.10566000000E+00 0. -1.
        994   -1    0    0    0    0 -0.00000000000E+00 -0.00000000000E+00  0.11368683772E-12  0.17120000000E+03  0.17120000000E+03 0.  0.
         13    1    1    2    0    0  0.30167054166E+01 -0.19449072986E+02  0.12379030736E+02  0.23251204648E+02  0.10566000000E+00 0. -1.
        994    1    1    2    0    0  0.37017669418E+02 -0.30292850634E+02  0.19969254860E+02  0.17887474888E+03  0.17120000000E+03 0.  0.
        998    1    1    2    0    0 -0.40034374834E+02  0.49741923621E+02  0.14676517107E+04  0.14690740465E+04  0.10000000000E+02 0. -1.
</event>
<event>
 5    1  0.1360042E-008  0.3848260E+03  0.7957747E-01  0.3430411E+00
         13   -1    0    0    0    0  0.00000000000E+00  0.00000000000E+00  0.14999999963E+04  0.15000000000E+04  0.10566000000E+00 0.  1.
        994   -1    0    0    0    0 -0.00000000000E+00 -0.00000000000E+00  0.11368683772E-12  0.17120000000E+03  0.17120000000E+03 0.  0.
         13    1    1    2    0    0  0.11177320499E+02  0.14796445669E+01  0.37801912370E+02  0.39447656261E+02  0.10566000000E+00 0.  1.
        994    1    1    2    0    0 -0.88309702375E+00 -0.90962398177E+01  0.19914515464E+01  0.17145532164E+03  0.17120000000E+03 0.  0.
        998    1    1    2    0    0 -0.10294223475E+02  0.76165952509E+01  0.14602066324E+04  0.14602970221E+04  0.10000000000E+02 0.  1.
</event>
<event>
 5    1  0.1360042E-008  0.3793542E+03  0.7957747E-01  0.3453975E+00
         13   -1    0    0    0    0  0.00000000000E+00  0.00000000000E+00  0.14999999963E+04  0.15000000000E+04  0.10566000000E+00 0.  1.
        994   -1    0    0    0    0 -0.00000000000E+00 -0.00000000000E+00  0.11368683772E-12  0.17120000000E+03  0.17120000000E+03 0.  0.
         13    1    1    2    0    0  0.15438919469E+02 -0.26272804265E+02  0.93419039829E+02  0.98263668998E+02  0.10566000000E+00 0.  1.
        994    1    1    2    0    0 -0.22692302055E+02  0.30870160760E+02  0.93928061107E+01  0.17568600458E+03  0.17120000000E+03 0.  0.
        998    1    1    2    0    0  0.72533825858E+01 -0.45973564953E+01  0.13971881503E+04  0.13972503264E+04  0.10000000000E+02 0.  1.
</event>
<event>
 5    1  0.1360042E-008  0.3813128E+03  0.7957747E-01  0.3445462E+00
         13   -1    0    0    0    0  0.00000000000E+00  0.00000000000E+00  0.14999999963E+04  0.15000000000E+04  0.10566000000E+00 0.  1.
        994   -1    0    0    0    0 -0.00000000000E+00 -0.00000000000E+00  0.11368683772E-12  0.17120000000E+03  0.17120000000E+03 0.  0.
         13    1    1    2    0    0 -0.12378249639E+02 -0.33265583895E+02  0.20538253441E+03  0.20842700579E+03  0.10566000000E+00 0.  1.
        994    1    1    2    0    0  0.75291993666E+01  0.25259547310E+01  0.36818676830E+01  0.17142364318E+03  0.17120000000E+03 0.  0.
        998    1    1    2    0    0  0.48490502728E+01  0.30739629164E+02  0.12909355942E+04  0.12913493510E+04  0.10000000000E+02 0.  1.
</event>
<event>
 5    1  0.1360042E-008  0.3824809E+03  0.7957747E-01  0.3440427E+00
         13   -1    0    0    0    0  0.00000000000E+00  0.00000000000E+00  0.14999999963E+04  0.15000000000E+04  0.10566000000E+00 0. -1.
        994   -1    0    0    0    0 -0.00000000000E+00 -0.00000000000E+00  0.11368683772E-12  0.17120000000E+03  0.17120000000E+03 0.  0.
         13    1    1    2    0    0  0.10811995530E+02 -0.13207140762E+02  0.50420281952E+02  0.53231041795E+02  0.10566000000E+00 0. -1.
        994    1    1    2    0    0 -0.11089115122E+02  0.23871169592E+00  0.32940411113E+01  0.17159054800E+03  0.17120000000E+03 0.  0.
        998    1    1    2    0    0  0.27711959187E+00  0.12968429066E+02  0.14462856732E+04  0.14463784102E+04  0.10000000000E+02 0. -1.
</event>
<event>
 5    1  0.1360042E-008  0.3767125E+03  0.7957747E-01  0.3465599E+00
         13   -1    0    0    0    0  0.00000000000E+00  0.00000000000E+00  0.14999999963E+04  0.15000000000E+04  0.10566000000E+00 0.  1.
        994   -1    0    0    0    0 -0.00000000000E+00 -0.00000000000E+00  0.11368683772E-12  0.17120000000E+03  0.17120000000E+03 0.  0.
         13    1    1    2    0    0  0.69323030366E+02 -0.19861427894E+02  0.29900715794E+03  0.30757999044E+03  0.10566000000E+00 0.  1.
        994    1    1    2    0    0 -0.95909018409E+02  0.80506557972E+01  0.37779785509E+02  0.20000026266E+03  0.17120000000E+03 0.  0.
        998    1    1    2    0    0  0.26585988042E+02  0.11810772097E+02  0.11632130528E+04  0.11636197469E+04  0.10000000000E+02 0.  1.
</event>
<event>
 5    1  0.1360042E-008  0.3797272E+03  0.7957747E-01  0.3452347E+00
         13   -1    0    0    0    0  0.00000000000E+00  0.00000000000E+00  0.14999999963E+04  0.15000000000E+04  0.10566000000E+00 0. -1.
        994   -1    0    0    0    0 -0.00000000000E+00 -0.00000000000E+00  0.11368683772E-12  0.17120000000E+03  0.17120000000E+03 0.  0.
         13    1    1    2    0    0  0.51436101504E+02  0.37578946220E+02  0.11598213951E+03  0.13232428948E+03  0.10566000000E+00 0. -1.
        994    1    1    2    0    0 -0.41676106816E+02 -0.31275996882E+02  0.26071881901E+02  0.18084321631E+03  0.17120000000E+03 0.  0.
        998    1    1    2    0    0 -0.97599946881E+01 -0.63029493377E+01  0.13579459749E+04  0.13580324942E+04  0.10000000000E+02 0. -1.
</event>
<event>
 5    1  0.1360042E-008  0.3802740E+03  0.7957747E-01  0.3449966E+00
         13   -1    0    0    0    0  0.00000000000E+00  0.00000000000E+00  0.14999999963E+04  0.15000000000E+04  0.10566000000E+00 0.  1.
        994   -1    0    0    0    0 -0.00000000000E+00 -0.00000000000E+00  0.11368683772E-12  0.17120000000E+03  0.17120000000E+03 0.  0.
         13    1    1    2    0    0 -0.28717122772E+02 -0.15796058552E+02  0.14839607992E+03  0.15197235375E+03  0.10566000000E+00 0.  1.
        994    1    1    2    0    0  0.35712060864E+01 -0.10349337726E+01  0.40410926284E+01  0.17128804696E+03  0.17120000000E+03 0.  0.
        998    1    1    2    0    0  0.25145916686E+02  0.16830992325E+02  0.13475628237E+04  0.13479395993E+04  0.10000000000E+02 0.  1.
</event>
<event>
 5    1  0.1360042E-008  0.3977294E+03  0.7957747E-01  0.3377417E+00
         13   -1    0    0    0    0  0.00000000000E+00  0.00000000000E+00  0.14999999963E+04  0.15000000000E+04  0.10566000000E+00 0. -1.
        994   -1    0    0    0    0 -0.00000000000E+00 -0.00000000000E+00  0.11368683772E-12  0.17120000000E+03  0.17120000000E+03 0.  0.
         13    1    1    2    0    0  0.76105020260E+01 -0.10030059537E+03  0.17753978614E+03  0.20405517881E+03  0.10566000000E+00 0. -1.
        994    1    1    2    0    0 -0.12998245601E+02  0.75921589716E+02  0.49830160284E+02  0.19423060276E+03  0.17120000000E+03 0.  0.
        998    1    1    2    0    0  0.53877435747E+01  0.24379005650E+02  0.12726300499E+04  0.12729142184E+04  0.10000000000E+02 0. -1.
</event>
<event>
 5    1  0.1360042E-008  0.3704473E+03  0.7957747E-01  0.3493838E+00
         13   -1    0    0    0    0  0.00000000000E+00  0.00000000000E+00  0.14999999963E+04  0.15000000000E+04  0.10566000000E+00 0.  1.
        994   -1    0    0    0    0 -0.00000000000E+00 -0.00000000000E+00  0.11368683772E-12  0.17120000000E+03  0.17120000000E+03 0.  0.
         13    1    1    2    0    0 -0.19777657227E+02 -0.21167519262E+02  0.32404999323E+02  0.43466248311E+02  0.10566000000E+00 0.  1.
        994    1    1    2    0    0  0.21543299929E+02  0.18380140973E+02  0.13988631628E+02  0.17408924484E+03  0.17120000000E+03 0.  0.
        998    1    1    2    0    0 -0.17656427024E+01  0.27873782887E+01  0.14536063653E+04  0.14536445068E+04  0.10000000000E+02 0.  1.
</event>
<event>
 5    1  0.1360042E-008  0.3763447E+03  0.7957747E-01  0.3467231E+00
         13   -1    0    0    0    0  0.00000000000E+00  0.00000000000E+00  0.14999999963E+04  0.15000000000E+04  0.10566000000E+00 0.  1.
        994   -1    0    0    0    0 -0.00000000000E+00 -0.00000000000E+00  0.11368683772E-12  0.17120000000E+03  0.17120000000E+03 0.  0.
         13    1    1    2    0    0  0.82838212070E+02  0.32192277108E+02  0.22671981218E+03  0.24351672732E+03  0.10566000000E+00 0.  1.
        994    1    1    2    0    0 -0.84766584228E+02 -0.33380992097E+02  0.44642307735E+02  0.19900261324E+03  0.17120000000E+03 0.  0.
        998    1    1    2    0    0  0.19283721578E+01  0.11887149883E+01  0.12286378764E+04  0.12286806594E+04  0.10000000000E+02 0.  0.
</event>
<event>
 5    1  0.1360042E-008  0.3835499E+03  0.7957747E-01  0.3435845E+00
         13   -1    0    0    0    0  0.00000000000E+00  0.00000000000E+00  0.14999999963E+04  0.15000000000E+04  0.10566000000E+00 0. -1.
        994   -1    0    0    0    0 -0.00000000000E+00 -0.00000000000E+00  0.11368683772E-12  0.17120000000E+03  0.17120000000E+03 0.  0.
         13    1    1    2    0    0 -0.70268734711E+01 -0.24715379172E+02  0.14554053547E+03  0.14779135816E+03  0.10566000000E+00 0. -1.
        994    1    1    2    0    0  0.77905339379E+01  0.87617196568E+01  0.28061041079E+01  0.17162393298E+03  0.17120000000E+03 0.  0.
        998    1    1    2    0    0 -0.76366046677E+00  0.15953659515E+02  0.13516533567E+04  0.13517847089E+04  0.10000000000E+02 0. -1.
</event>
<event>
 5    1  0.1360042E-008  0.3836022E+03  0.7957747E-01  0.3435622E+00
         13   -1    0    0    0    0  0.00000000000E+00  0.00000000000E+00  0.14999999963E+04  0.15000000000E+04  0.10566000000E+00 0. -1.
        994   -1    0    0    0    0 -0.00000000000E+00 -0.00000000000E+00  0.11368683772E-12  0.17120000000E+03  0.17120000000E+03 0.  0.
         13    1    1    2    0    0 -0.19048608787E+02  0.50757348610E+01  0.75821075560E+02  0.78341937966E+02  0.10566000000E+00 0. -1.
        994    1    1    2    0    0  0.24879953322E+02 -0.17113472960E+02  0.53440769158E+01  0.17392493264E+03  0.17120000000E+03 0.  0.
        998    1    1    2    0    0 -0.58313445345E+01  0.12037738099E+02  0.14188348438E+04  0.14189331294E+04  0.10000000000E+02 0. -1.
</event>
<event>
 5    1  0.1360042E-008  0.3863521E+03  0.7957747E-01  0.3423958E+00
         13   -1    0    0    0    0  0.00000000000E+00  0.00000000000E+00  0.14999999963E+04  0.15000000000E+04  0.10566000000E+00 0. -1.
        994   -1    0    0    0    0 -0.00000000000E+00 -0.00000000000E+00  0.11368683772E-12  0.17120000000E+03  0.17120000000E+03 0.  0.
         13    1    1    2    0    0  0.10540903313E+02 -0.14809091247E+01  0.61213205677E+02  0.62131887528E+02  0.10566000000E+00 0. -1.
        994    1    1    2    0    0 -0.54373387832E+01 -0.39721035054E+01  0.11088169374E+01  0.17133596159E+03  0.17120000000E+03 0.  0.
        998    1    1    2    0    0 -0.51035645303E+01  0.54530126301E+01  0.14376779737E+04  0.14377321509E+04  0.10000000000E+02 0. -1.
</event>
<event>
 5    1  0.1360042E-008  0.3782125E+03  0.7957747E-01  0.3458979E+00
         13   -1    0    0    0    0  0.00000000000E+00  0.00000000000E+00  0.14999999963E+04  0.15000000000E+04  0.10566000000E+00 0.  1.
        994   -1    0    0    0    0 -0.00000000000E+00 -0.00000000000E+00  0.11368683772E-12  0.17120000000E+03  0.17120000000E+03 0.  0.
         13    1    1    2    0    0 -0.29550424022E+02 -0.54634979888E+02  0.36753204226E+03  0.37274390919E+03  0.10566000000E+00 0.  1.
        994    1    1    2    0    0  0.54331110427E+01  0.42063777195E+02  0.11111365212E+02  0.17672516087E+03  0.17120000000E+03 0.  0.
        998    1    1    2    0    0  0.24117312979E+02  0.12571202693E+02  0.11213565888E+04  0.11217309299E+04  0.10000000000E+02 0.  1.
</event>
<event>
 5    1  0.1360042E-008  0.3717318E+03  0.7957747E-01  0.3487969E+00
         13   -1    0    0    0    0  0.00000000000E+00  0.00000000000E+00  0.14999999963E+04  0.15000000000E+04  0.10566000000E+00 0.  1.
        994   -1    0    0    0    0 -0.00000000000E+00 -0.00000000000E+00  0.11368683772E-12  0.17120000000E+03  0.17120000000E+03 0.  0.
         13    1    1    2    0    0  0.79604499695E-01  0.23236783463E+02  0.27794536978E+02  0.36228467983E+02  0.10566000000E+00 0.  1.
        994    1    1    2    0    0 -0.51214043375E+01 -0.30202954299E+02  0.11599021675E+02  0.17430554935E+03  0.17120000000E+03 0.  0.
        998    1    1    2    0    0  0.50417998378E+01  0.69661708362E+01  0.14606064376E+04  0.14606659827E+04  0.10000000000E+02 0.  1.
</event>
<event>
 5    1  0.1360042E-008  0.3833317E+03  0.7957747E-01  0.3436778E+00
         13   -1    0    0    0    0  0.00000000000E+00  0.00000000000E+00  0.14999999963E+04  0.15000000000E+04  0.10566000000E+00 0.  1.
        994   -1    0    0    0    0 -0.00000000000E+00 -0.00000000000E+00  0.11368683772E-12  0.17120000000E+03  0.17120000000E+03 0.  0.
         13    1    1    2    0    0 -0.24077932764E+02  0.12408023619E+01  0.11134174529E+03  0.11392226229E+03  0.10566000000E+00 0.  1.
        994    1    1    2    0    0  0.22245314340E+02 -0.29129167118E+02  0.69152527391E+01  0.17521593280E+03  0.17120000000E+03 0.  0.
        998    1    1    2    0    0  0.18326184241E+01  0.27888364756E+02  0.13817429983E+04  0.13820618049E+04  0.10000000000E+02 0.  1.
</event>
<event>
 5    1  0.1360042E-008  0.3735239E+03  0.7957747E-01  0.3479851E+00
         13   -1    0    0    0    0  0.00000000000E+00  0.00000000000E+00  0.14999999963E+04  0.15000000000E+04  0.10566000000E+00 0.  1.
        994   -1    0    0    0    0 -0.00000000000E+00 -0.00000000000E+00  0.11368683772E-12  0.17120000000E+03  0.17120000000E+03 0.  0.
         13    1    1    2    0    0  0.67756335225E+02  0.77929111471E+02  0.48301856726E+03  0.49393401873E+03  0.10566000000E+00 0.  1.
        994    1    1    2    0    0 -0.66000456843E+02 -0.77075495743E+02  0.43474930413E+02  0.20370616565E+03  0.17120000000E+03 0.  0.
        998    1    1    2    0    0 -0.17558783821E+01 -0.85361572803E+00  0.97350649861E+03  0.97355981563E+03  0.10000000000E+02 0.  0.
</event>
<event>
 5    1  0.1360042E-008  0.3940888E+03  0.7957747E-01  0.3392017E+00
         13   -1    0    0    0    0  0.00000000000E+00  0.00000000000E+00  0.14999999963E+04  0.15000000000E+04  0.10566000000E+00 0.  1.
        994   -1    0    0    0    0 -0.00000000000E+00 -0.00000000000E+00  0.11368683772E-12  0.17120000000E+03  0.17120000000E+03 0.  0.
         13    1    1    2    0    0  0.28418299529E+02 -0.88356545820E+02  0.14827216646E+03  0.17492605709E+03  0.10566000000E+00 0.  1.
        994    1    1    2    0    0  0.24584294907E+02  0.11309007958E+03  0.77557020040E+02  0.22072218967E+03  0.17120000000E+03 0.  0.
        998    1    1    2    0    0 -0.53002594436E+02 -0.24733533759E+02  0.12741708098E+04  0.12755517532E+04  0.10000000000E+02 0.  1.
</event>
<event>
 5    1  0.1360042E-008  0.3823079E+03  0.7957747E-01  0.3441170E+00
         13   -1    0    0    0    0  0.00000000000E+00  0.00000000000E+00  0.14999999963E+04  0.15000000000E+04  0.10566000000E+00 0. -1.
        994   -1    0    0    0    0 -0.00000000000E+00 -0.00000000000E+00  0.11368683772E-12  0.17120000000E+03  0.17120000000E+03 0.  0.
         13    1    1    2    0    0  0.11779244500E+02 -0.78235348227E+01  0.39821707440E+02  0.42257991500E+02  0.10566000000E+00 0. -1.
        994    1    1    2    0    0  0.43164505992E+02 -0.93779157002E+01  0.94728605089E+01  0.17706014505E+03  0.17120000000E+03 0.  0.
        998    1    1    2    0    0 -0.54943750492E+02  0.17201450523E+02  0.14507054283E+04  0.14518818634E+04  0.10000000000E+02 0. -1.
</event>
<event>
 5    1  0.1360042E-008  0.3841678E+03  0.7957747E-01  0.3433209E+00
         13   -1    0    0    0    0  0.00000000000E+00  0.00000000000E+00  0.14999999963E+04  0.15000000000E+04  0.10566000000E+00 0. -1.
        994   -1    0    0    0    0 -0.00000000000E+00 -0.00000000000E+00  0.11368683772E-12  0.17120000000E+03  0.17120000000E+03 0.  0.
         13    1    1    2    0    0 -0.97350628740E+01  0.15573860759E+02  0.81130251238E+02  0.83183203942E+02  0.10566000000E+00 0. -1.
        994    1    1    2    0    0  0.88592314049E+01 -0.10703111762E+02  0.26806858383E+01  0.17178378462E+03  0.17120000000E+03 0.  0.
        998    1    1    2    0    0  0.87583146901E+00 -0.48707489961E+01  0.14161890592E+04  0.14162330114E+04  0.10000000000E+02 0. -1.
</event>
<event>
 5    1  0.1360042E-008  0.3812821E+03  0.7957747E-01  0.3445595E+00
         13   -1    0    0    0    0  0.00000000000E+00  0.00000000000E+00  0.14999999963E+04  0.15000000000E+04  0.10566000000E+00 0.  1.
        994   -1    0    0    0    0 -0.00000000000E+00 -0.00000000000E+00  0.11368683772E-12  0.17120000000E+03  0.17120000000E+03 0.  0.
         13    1    1    2    0    0 -0.28756236242E+02 -0.13596784394E+02  0.14978937700E+03  0.15312956049E+03  0.10566000000E+00 0.  1.
        994    1    1    2    0    0  0.48860175947E+01  0.20882089596E+02  0.50198857079E+01  0.17261104856E+03  0.17120000000E+03 0.  0.
        998    1    1    2    0    0  0.23870218647E+02 -0.72853052025E+01  0.13451907336E+04  0.13454593909E+04  0.10000000000E+02 0.  1.
</event>
<event>
 5    1  0.1360042E-008  0.3762189E+03  0.7957747E-01  0.3467789E+00
         13   -1    0    0    0    0  0.00000000000E+00  0.00000000000E+00  0.14999999963E+04  0.15000000000E+04  0.10566000000E+00 0.  1.
        994   -1    0    0    0    0 -0.00000000000E+00 -0.00000000000E+00  0.11368683772E-12  0.17120000000E+03  0.17120000000E+03 0.  0.
         13    1    1    2    0    0 -0.29588773119E+02  0.51126638645E+01  0.85962143677E+02  0.91055676023E+02  0.10566000000E+00 0.  1.
        994    1    1    2    0    0 -0.22699053001E+02  0.43277517618E+01  0.78639053047E+01  0.17293136630E+03  0.17120000000E+03 0.  0.
        998    1    1    2    0    0  0.52287826119E+02 -0.94404156263E+01  0.14061739473E+04  0.14072129577E+04  0.10000000000E+02 0.  1.
</event>
<event>
 5    1  0.1360042E-008  0.3760011E+03  0.7957747E-01  0.3468757E+00
         13   -1    0    0    0    0  0.00000000000E+00  0.00000000000E+00  0.14999999963E+04  0.15000000000E+04  0.10566000000E+00 0. -1.
        994   -1    0    0    0    0 -0.00000000000E+00 -0.00000000000E+00  0.11368683772E-12  0.17120000000E+03  0.17120000000E+03 0.  0.
         13    1    1    2    0    0 -0.91487472251E+00 -0.10917784583E+02  0.68478925093E+01  0.12920519022E+02  0.10566000000E+00 0. -1.
        994    1    1    2    0    0 -0.14648031742E+01  0.12429970994E+02  0.66963937106E+01  0.17178746030E+03  0.17120000000E+03 0.  0.
        998    1    1    2    0    0  0.23796778967E+01 -0.15121864114E+01  0.14864557101E+04  0.14864920207E+04  0.10000000000E+02 0. -1.
</event>
<event>
 5    1  0.1360042E-008  0.3826718E+03  0.7957747E-01  0.3439607E+00
         13   -1    0    0    0    0  0.00000000000E+00  0.00000000000E+00  0.14999999963E+04  0.15000000000E+04  0.10566000000E+00 0. -1.
        994   -1    0    0    0    0 -0.00000000000E+00 -0.00000000000E+00  0.11368683772E-12  0.17120000000E+03  0.17120000000E+03 0.  0.
         13    1    1    2    0    0  0.24618066591E+02  0.13154314095E+02  0.15192522714E+03  0.15446802578E+03  0.10566000000E+00 0. -1.
        994    1    1    2    0    0 -0.32783380177E+01 -0.43723457851E+01  0.28894440431E+01  0.17131156935E+03  0.17120000000E+03 0.  0.
        998    1    1    2    0    0 -0.21339728573E+02 -0.87819683101E+01  0.13451853251E+04  0.13454204049E+04  0.10000000000E+02 0. -1.
</event>
<event>
 5    1  0.1360042E-008  0.3855462E+03  0.7957747E-01  0.3427359E+00
         13   -1    0    0    0    0  0.00000000000E+00  0.00000000000E+00  0.14999999963E+04  0.15000000000E+04  0.10566000000E+00 0.  1.
        994   -1    0    0    0    0 -0.00000000000E+00 -0.00000000000E+00  0.11368683772E-12  0.17120000000E+03  0.17120000000E+03 0.  0.
         13    1    1    2    0    0  0.99933124026E+01  0.38312462348E+01  0.41829072795E+02  0.43176697829E+02  0.10566000000E+00 0.  1.
        994    1    1    2    0    0 -0.85916588972E+01 -0.34603608195E+01  0.16408966332E+01  0.17145822594E+03  0.17120000000E+03 0.  0.
        998    1    1    2    0    0 -0.14016535054E+01 -0.37088541539E+00  0.14565300268E+04  0.14565650762E+04  0.10000000000E+02 0.  1.
</event>
<event>
 5    1  0.1360042E-008  0.3862360E+03  0.7957747E-01  0.3424447E+00
         13   -1    0    0    0    0  0.00000000000E+00  0.00000000000E+00  0.14999999963E+04  0.15000000000E+04  0.10566000000E+00 0. -1.
        994   -1    0    0    0    0 -0.00000000000E+00 -0.00000000000E+00  0.11368683772E-12  0.17120000000E+03  0.17120000000E+03 0.  0.
         13    1    1    2    0    0  0.11068850768E+02  0.18491011572E+01  0.62736825552E+02  0.63732715906E+02  0.10566000000E+00 0. -1.
        994    1    1    2    0    0 -0.78404295886E+01 -0.16151524845E+00  0.12191767839E+01  0.17138385226E+03  0.17120000000E+03 0.  0.
        998    1    1    2    0    0 -0.32284211791E+01 -0.16875859087E+01  0.14360439939E+04  0.14360834318E+04  0.10000000000E+02 0. -1.
</event>
<event>
 5    1  0.1360042E-008  0.3848760E+03  0.7957747E-01  0.3430198E+00
         13   -1    0    0    0    0  0.00000000000E+00  0.00000000000E+00  0.14999999963E+04  0.15000000000E+04  0.10566000000E+00 0.  1.
        994   -1    0    0    0    0 -0.00000000000E+00 -0.00000000000E+00  0.11368683772E-12  0.17120000000E+03  0.17120000000E+03 0.  0.
         13    1    1    2    0    0 -0.11777642064E+02  0.12331836541E+02  0.86195845176E+02  0.87866500640E+02  0.10566000000E+00 0.  1.
        994    1    1    2    0    0  0.12009048334E+02 -0.32216916006E+01  0.22005063066E+01  0.17166501905E+03  0.17120000000E+03 0.  0.
        998    1    1    2    0    0 -0.23140627067E+00 -0.91101449401E+01  0.14116036448E+04  0.14116684803E+04  0.10000000000E+02 0.  1.
</event>
<event>
 5    1  0.1360042E-008  0.3773479E+03  0.7957747E-01  0.3462788E+00
         13   -1    0    0    0    0  0.00000000000E+00  0.00000000000E+00  0.14999999963E+04  0.15000000000E+04  0.10566000000E+00 0.  1.
        994   -1    0    0    0    0 -0.00000000000E+00 -0.00000000000E+00  0.11368683772E-12  0.17120000000E+03  0.17120000000E+03 0.  0.
         13    1    1    2    0    0 -0.39523906041E+02  0.57053418648E+01  0.15530208500E+03  0.16035410454E+03  0.10566000000E+00 0.  1.
        994    1    1    2    0    0  0.99411045985E+01 -0.89914332723E+00  0.58140205699E+01  0.17158926789E+03  0.17120000000E+03 0.  0.
        998    1    1    2    0    0  0.29582801442E+02 -0.48061985376E+01  0.13388838907E+04  0.13392566276E+04  0.10000000000E+02 0.  1.
</event>
<event>
 5    1  0.2263829E-008  0.3854647E+03  0.7957747E-01  0.3427704E+00
         13   -1    0    0    0    0  0.00000000000E+00  0.00000000000E+00  0.14999999963E+04  0.15000000000E+04  0.10566000000E+00 0. -1.
        994   -1    0    0    0    0 -0.00000000000E+00 -0.00000000000E+00  0.11368683772E-12  0.17120000000E+03  0.17120000000E+03 0.  0.
         13    1    1    2    0    0 -0.13099749049E+02 -0.14861447099E+01  0.65963517129E+02  0.67268185700E+02  0.10566000000E+00 0. -1.
        994    1    1    2    0    0  0.31619514846E+00  0.34570412083E+01  0.14391955424E+01  0.17124124035E+03  0.17120000000E+03 0.  0.
        998    1    1    2    0    0  0.12783553901E+02 -0.19708964983E+01  0.14325972836E+04  0.14326905739E+04  0.10000000000E+02 0. -1.
</event>
<event>
 5    1  0.1360042E-008  0.3857106E+03  0.7957747E-01  0.3426664E+00
         13   -1    0    0    0    0  0.00000000000E+00  0.00000000000E+00  0.14999999963E+04  0.15000000000E+04  0.10566000000E+00 0. -1.
        994   -1    0    0    0    0 -0.00000000000E+00 -0.00000000000E+00  0.11368683772E-12  0.17120000000E+03  0.17120000000E+03 0.  0.
         13    1    1    2    0    0  0.87536578484E+01  0.94017294777E+01  0.66877100791E+02  0.68099756367E+02  0.10566000000E+00 0. -1.
        994    1    1    2    0    0 -0.35270344958E+00 -0.61755783405E+01  0.14033137241E+01  0.17131745812E+03  0.17120000000E+03 0.  0.
        998    1    1    2    0    0 -0.84009543988E+01 -0.32261511372E+01  0.14317195818E+04  0.14317827855E+04  0.10000000000E+02 0. -1.
</event>
<event>
 5    1  0.1360042E-008  0.3816439E+03  0.7957747E-01  0.3444032E+00
         13   -1    0    0    0    0  0.00000000000E+00  0.00000000000E+00  0.14999999963E+04  0.15000000000E+04  0.10566000000E+00 0.  1.
        994   -1    0    0    0    0 -0.00000000000E+00 -0.00000000000E+00  0.11368683772E-12  0.17120000000E+03  0.17120000000E+03 0.  0.
         13    1    1    2    0    0  0.18952005166E+02 -0.89116414348E+01  0.64809451575E+02  0.68109265379E+02  0.10566000000E+00 0.  1.
        994    1    1    2    0    0 -0.10427203924E+02  0.12604879281E+02  0.41958783899E+01  0.17203097093E+03  0.17120000000E+03 0.  0.
        998    1    1    2    0    0 -0.85248012418E+01 -0.36932378458E+01  0.14309946663E+04  0.14310597637E+04  0.10000000000E+02 0.  1.
</event>
<event>
 5    1  0.1360042E-008  0.3745507E+03  0.7957747E-01  0.3475235E+00
         13   -1    0    0    0    0  0.00000000000E+00  0.00000000000E+00  0.14999999963E+04  0.15000000000E+04  0.10566000000E+00 0.  1.
        994   -1    0    0    0    0 -0.00000000000E+00 -0.00000000000E+00  0.11368683772E-12  0.17120000000E+03  0.17120000000E+03 0.  0.
         13    1    1    2    0    0 -0.25327272579E+02 -0.28741323839E+02  0.94045616150E+02  0.10154862635E+03  0.10566000000E+00 0.  1.
        994    1    1    2    0    0 -0.10409299216E+02  0.74045298483E+02  0.26188689084E+02  0.18864343925E+03  0.17120000000E+03 0.  0.
        998    1    1    2    0    0  0.35736571796E+02 -0.45303974644E+02  0.13797656910E+04  0.13810079344E+04  0.10000000000E+02 0.  1.
</event>
<event>
 5    1  0.1360042E-008  0.3831739E+03  0.7957747E-01  0.3437454E+00
         13   -1    0    0    0    0  0.00000000000E+00  0.00000000000E+00  0.14999999963E+04  0.15000000000E+04  0.10566000000E+00 0. -1.
        994   -1    0    0    0    0 -0.00000000000E+00 -0.00000000000E+00  0.11368683772E-12  0.17120000000E+03  0.17120000000E+03 0.  0.
         13    1    1    2    0    0 -0.17923638309E+02  0.28616292391E+01  0.67986535721E+02  0.70367790469E+02  0.10566000000E+00 0. -1.
        994    1    1    2    0    0 -0.21739975005E+00 -0.70299266909E+01  0.27031591868E+01  0.17136573228E+03  0.17120000000E+03 0.  0.
        998    1    1    2    0    0  0.18141038059E+02  0.41682974519E+01  0.14293103014E+04  0.14294664772E+04  0.10000000000E+02 0. -1.
</event>
<event>
 5    1  0.1360042E-008  0.3768832E+03  0.7957747E-01  0.3464843E+00
         13   -1    0    0    0    0  0.00000000000E+00  0.00000000000E+00  0.14999999963E+04  0.15000000000E+04  0.10566000000E+00 0.  1.
        994   -1    0    0    0    0 -0.00000000000E+00 -0.00000000000E+00  0.11368683772E-12  0.17120000000E+03  0.17120000000E+03 0.  0.
         13    1    1    2    0    0 -0.15748706158E+02 -0.31864556510E+02  0.12201386307E+03  0.12708566266E+03  0.10566000000E+00 0.  1.
        994    1    1    2    0    0 -0.16875025074E+02  0.64166500901E+01  0.68165504607E+01  0.17228419901E+03  0.17120000000E+03 0.  0.
        998    1    1    2    0    0  0.32623731232E+02  0.25447906420E+02  0.13711695827E+04  0.13718301383E+04  0.10000000000E+02 0.  1.
</event>
<event>
 5    1  0.1360042E-008  0.3821369E+03  0.7957747E-01  0.3441907E+00
         13   -1    0    0    0    0  0.00000000000E+00  0.00000000000E+00  0.14999999963E+04  0.15000000000E+04  0.10566000000E+00 0.  1.
        994   -1    0    0    0    0 -0.00000000000E+00 -0.00000000000E+00  0.11368683772E-12  0.17120000000E+03  0.17120000000E+03 0.  0.
         13    1    1    2    0    0 -0.13203089624E+02 -0.37062821644E+02  0.19684383300E+03  0.20073734101E+03  0.10566000000E+00 0.  1.
        994    1    1    2    0    0  0.36994451114E+02  0.44307854363E+02  0.14198018662E+02  0.18122582351E+03  0.17120000000E+03 0.  0.
        998    1    1    2    0    0 -0.23791361490E+02 -0.72450327188E+01  0.12889581446E+04  0.12892368355E+04  0.10000000000E+02 0.  1.
</event>
<event>
 5    1  0.1360042E-008  0.3824831E+03  0.7957747E-01  0.3440417E+00
         13   -1    0    0    0    0  0.00000000000E+00  0.00000000000E+00  0.14999999963E+04  0.15000000000E+04  0.10566000000E+00 0. -1.
        994   -1    0    0    0    0 -0.00000000000E+00 -0.00000000000E+00  0.11368683772E-12  0.17120000000E+03  0.17120000000E+03 0.  0.
         13    1    1    2    0    0 -0.81177321660E+01 -0.14419837121E+02  0.42289569926E+02  0.45411982633E+02  0.10566000000E+00 0. -1.
        994    1    1    2    0    0  0.38842276630E+02  0.18157095375E+02  0.90045805484E+01  0.17671707625E+03  0.17120000000E+03 0.  0.
        998    1    1    2    0    0 -0.30724544464E+02 -0.37372582540E+01  0.14487058458E+04  0.14490709411E+04  0.10000000000E+02 0. -1.
</event>
<event>
 5    1  0.1360042E-008  0.2768516E+03  0.7957747E-01  0.4076524E+00
         13   -1    0    0    0    0  0.00000000000E+00  0.00000000000E+00  0.14999999963E+04  0.15000000000E+04  0.10566000000E+00 0. -1.
        994   -1    0    0    0    0 -0.00000000000E+00 -0.00000000000E+00  0.11368683772E-12  0.17120000000E+03  0.17120000000E+03 0.  0.
         13    1    1    2    0    0  0.67160970514E+02 -0.11563377663E+03  0.67785270662E+03  0.69091683240E+03  0.10566000000E+00 0. -1.
        994    1    1    2    0    0 -0.93922516194E+00  0.27661680277E+02  0.24659220444E+02  0.17516725679E+03  0.17120000000E+03 0.  0.
        998    1    1    2    0    0 -0.66221745352E+02  0.87972096352E+02  0.79748806922E+03  0.80511591081E+03  0.10000000000E+02 0. -1.
</event>
<event>
 5    1  0.1360042E-008  0.3751421E+03  0.7957747E-01  0.3472587E+00
         13   -1    0    0    0    0  0.00000000000E+00  0.00000000000E+00  0.14999999963E+04  0.15000000000E+04  0.10566000000E+00 0. -1.
        994   -1    0    0    0    0 -0.00000000000E+00 -0.00000000000E+00  0.11368683772E-12  0.17120000000E+03  0.17120000000E+03 0.  0.
         13    1    1    2    0    0  0.79992047221E+01 -0.30831250394E+02  0.76051570379E+02  0.82452445677E+02  0.10566000000E+00 0. -1.
        994    1    1    2    0    0  0.59073931173E+00  0.14713442605E+02  0.73428231025E+01  0.17198892818E+03  0.17120000000E+03 0.  0.
        998    1    1    2    0    0 -0.85899440338E+01  0.16117807788E+02  0.14166056028E+04  0.14167586261E+04  0.10000000000E+02 0. -1.
</event>
<event>
 5    1  0.2096285E-008  0.3862808E+03  0.7957747E-01  0.3424258E+00
         13   -1    0    0    0    0  0.00000000000E+00  0.00000000000E+00  0.14999999963E+04  0.15000000000E+04  0.10566000000E+00 0.  1.
        994   -1    0    0    0    0 -0.00000000000E+00 -0.00000000000E+00  0.11368683772E-12  0.17120000000E+03  0.17120000000E+03 0.  0.
         13    1    1    2    0    0 -0.97884207344E+01 -0.34336793360E+01  0.55834968226E+02  0.56790476095E+02  0.10566000000E+00 0.  1.
        994    1    1    2    0    0  0.42544082178E+01  0.25891776768E+01  0.10768202971E+01  0.17127581082E+03  0.17120000000E+03 0.  0.
        998    1    1    2    0    0  0.55340125167E+01  0.84450165920E+00  0.14430882078E+04  0.14431337131E+04  0.10000000000E+02 0.  1.
</event>
<event>
 5    1  0.1360042E-008  0.3816528E+03  0.7957747E-01  0.3443993E+00
         13   -1    0    0    0    0  0.00000000000E+00  0.00000000000E+00  0.14999999963E+04  0.15000000000E+04  0.10566000000E+00 0.  1.
        994   -1    0    0    0    0 -0.00000000000E+00 -0.00000000000E+00  0.11368683772E-12  0.17120000000E+03  0.17120000000E+03 0.  0.
         13    1    1    2    0    0 -0.14904330336E+02 -0.97953901090E+01  0.50525882666E+02  0.53581384019E+02  0.10566000000E+00 0.  1.
        994    1    1    2    0    0 -0.11166368233E+02  0.69017468294E+01  0.38742849761E+01  0.17174624297E+03  0.17120000000E+03 0.  0.
        998    1    1    2    0    0  0.26070698569E+02  0.28936432796E+01  0.14455998286E+04  0.14458723730E+04  0.10000000000E+02 0.  1.
</event>
<event>
 5    1  0.1360042E-008  0.3851497E+03  0.7957747E-01  0.3429037E+00
         13   -1    0    0    0    0  0.00000000000E+00  0.00000000000E+00  0.14999999963E+04  0.15000000000E+04  0.10566000000E+00 0.  1.
        994   -1    0    0    0    0 -0.00000000000E+00 -0.00000000000E+00  0.11368683772E-12  0.17120000000E+03  0.17120000000E+03 0.  0.
         13    1    1    2    0    0  0.15004542309E+02  0.83867772925E+01  0.91925817240E+02  0.93519203176E+02  0.10566000000E+00 0.  1.
        994    1    1    2    0    0 -0.10255094169E+02 -0.13625076500E+02  0.25123124990E+01  0.17206557291E+03  0.17120000000E+03 0.  0.
        998    1    1    2    0    0 -0.47494481406E+01  0.52382992071E+01  0.14055618665E+04  0.14056152239E+04  0.10000000000E+02 0.  1.
</event>
<event>
 5    1  0.1360042E-008  0.3831188E+03  0.7957747E-01  0.3437690E+00
         13   -1    0    0    0    0  0.00000000000E+00  0.00000000000E+00  0.14999999963E+04  0.15000000000E+04  0.10566000000E+00 0.  1.
        994   -1    0    0    0    0 -0.00000000000E+00 -0.00000000000E+00  0.11368683772E-12  0.17120000000E+03  0.17120000000E+03 0.  0.
         13    1    1    2    0    0  0.34506842393E+01 -0.18477885005E+02  0.70121088704E+02  0.72596953800E+02  0.10566000000E+00 0.  1.
        994    1    1    2    0    0  0.43549584216E+00  0.68343017895E+01  0.27222178923E+01  0.17135853585E+03  0.17120000000E+03 0.  0.
        998    1    1    2    0    0 -0.38861800814E+01  0.11643583216E+02  0.14271566897E+04  0.14272445104E+04  0.10000000000E+02 0.  1.
</event>
<event>
 5    1  0.1360042E-008  0.3853113E+03  0.7957747E-01  0.3428353E+00
         13   -1    0    0    0    0  0.00000000000E+00  0.00000000000E+00  0.14999999963E+04  0.15000000000E+04  0.10566000000E+00 0.  1.
        994   -1    0    0    0    0 -0.00000000000E+00 -0.00000000000E+00  0.11368683772E-12  0.17120000000E+03  0.17120000000E+03 0.  0.
         13    1    1    2    0    0 -0.12927076329E+02  0.45421715934E+01  0.66782740118E+02  0.68173940526E+02  0.10566000000E+00 0.  1.
        994    1    1    2    0    0  0.61195349659E+00 -0.54382267822E+01  0.15740443156E+01  0.17129467713E+03  0.17120000000E+03 0.  0.
        998    1    1    2    0    0  0.12315122832E+02  0.89605518877E+00  0.14316432118E+04  0.14317313823E+04  0.10000000000E+02 0.  1.
</event>
<event>
 5    1  0.1360042E-008  0.3837690E+03  0.7957747E-01  0.3434910E+00
         13   -1    0    0    0    0  0.00000000000E+00  0.00000000000E+00  0.14999999963E+04  0.15000000000E+04  0.10566000000E+00 0.  1.
        994   -1    0    0    0    0 -0.00000000000E+00 -0.00000000000E+00  0.11368683772E-12  0.17120000000E+03  0.17120000000E+03 0.  0.
         13    1    1    2    0    0  0.17782233978E+02 -0.14405139220E+02  0.12177245362E+03  0.12390422715E+03  0.10566000000E+00 0.  1.
        994    1    1    2    0    0 -0.21310941267E+02 -0.12366408067E+02  0.42496128974E+01  0.17301613646E+03  0.17120000000E+03 0.  0.
        998    1    1    2    0    0  0.35287072890E+01  0.26771547288E+02  0.13739779298E+04  0.13742796364E+04  0.10000000000E+02 0.  1.
</event>
<event>
 5    1  0.1360042E-008  0.3801974E+03  0.7957747E-01  0.3450299E+00
         13   -1    0    0    0    0  0.00000000000E+00  0.00000000000E+00  0.14999999963E+04  0.15000000000E+04  0.10566000000E+00 0.  1.
        994   -1    0    0    0    0 -0.00000000000E+00 -0.00000000000E+00  0.11368683772E-12  0.17120000000E+03  0.17120000000E+03 0.  0.
         13    1    1    2    0    0 -0.41133739491E+02 -0.16814726302E+02  0.25001660654E+03  0.25393509850E+03  0.10566000000E+00 0.  1.
        994    1    1    2    0    0  0.27844780039E+02 -0.77523733058E+01  0.68294835807E+01  0.17375705141E+03  0.17120000000E+03 0.  0.
        998    1    1    2    0    0  0.13288959452E+02  0.24567099607E+02  0.12431539062E+04  0.12435078501E+04  0.10000000000E+02 0.  1.
</event>
<event>
 5    1  0.1360042E-008  0.4333549E+03  0.7957747E-01  0.3247356E+00
         13   -1    0    0    0    0  0.00000000000E+00  0.00000000000E+00  0.14999999963E+04  0.15000000000E+04  0.10566000000E+00 0. -1.
        994   -1    0    0    0    0 -0.00000000000E+00 -0.00000000000E+00  0.11368683772E-12  0.17120000000E+03  0.17120000000E+03 0.  0.
         13    1    1    2    0    0 -0.85428262293E+01 -0.41649156851E+02  0.87816940965E+00  0.42525456987E+02  0.10566000000E+00 0. -1.
        994    1    1    2    0    0 -0.48101430426E+02 -0.54786743175E+01  0.60184981983E+02  0.18781755918E+03  0.17120000000E+03 0.  0.
        998    1    1    2    0    0  0.56644256655E+02  0.47127831168E+02  0.14389368449E+04  0.14408569838E+04  0.10000000000E+02 0. -1.
</event>
<event>
 5    1  0.1360042E-008  0.3829078E+03  0.7957747E-01  0.3438594E+00
         13   -1    0    0    0    0  0.00000000000E+00  0.00000000000E+00  0.14999999963E+04  0.15000000000E+04  0.10566000000E+00 0.  1.
        994   -1    0    0    0    0 -0.00000000000E+00 -0.00000000000E+00  0.11368683772E-12  0.17120000000E+03  0.17120000000E+03 0.  0.
         13    1    1    2    0    0  0.63478241885E+01  0.21597075500E+02  0.90373663685E+02  0.93135056740E+02  0.10566000000E+00 0.  1.
        994    1    1    2    0    0 -0.33178768627E+01 -0.20681512597E+02  0.41264705365E+01  0.17252594306E+03  0.17120000000E+03 0.  0.
        998    1    1    2    0    0 -0.30299473258E+01 -0.91556290320E+00  0.14054998621E+04  0.14055390002E+04  0.10000000000E+02 0.  1.
</event>
<event>
 5    1  0.1360042E-008  0.3726109E+03  0.7957747E-01  0.3483977E+00
         13   -1    0    0    0    0  0.00000000000E+00  0.00000000000E+00  0.14999999963E+04  0.15000000000E+04  0.10566000000E+00 0. -1.
        994   -1    0    0    0    0 -0.00000000000E+00 -0.00000000000E+00  0.11368683772E-12  0.17120000000E+03  0.17120000000E+03 0.  0.
         13    1    1    2    0    0 -0.13417326428E+02 -0.43175987579E+02  0.12183622740E+03  0.12995486918E+03  0.10566000000E+00 0. -1.
        994    1    1    2    0    0  0.31261083977E+01  0.36818045801E+02  0.12603932727E+02  0.17559510292E+03  0.17120000000E+03 0.  0.
        998    1    1    2    0    0  0.10291218030E+02  0.63579417781E+01  0.13655598361E+04  0.13656500279E+04  0.10000000000E+02 0. -1.
</event>
<event>
 5    1  0.1360042E-008  0.3838126E+03  0.7957747E-01  0.3434724E+00
         13   -1    0    0    0    0  0.00000000000E+00  0.00000000000E+00  0.14999999963E+04  0.15000000000E+04  0.10566000000E+00 0. -1.
        994   -1    0    0    0    0 -0.00000000000E+00 -0.00000000000E+00  0.11368683772E-12  0.17120000000E+03  0.17120000000E+03 0.  0.
         13    1    1    2    0    0  0.11086517254E+02  0.35469468704E+01  0.30797644716E+02  0.32924121568E+02  0.10566000000E+00 0. -1.
        994    1    1    2    0    0  0.13761939190E+01 -0.44609942819E+01  0.22927678684E+01  0.17127898635E+03  0.17120000000E+03 0.  0.
        998    1    1    2    0    0 -0.12462711173E+02  0.91404741150E+00  0.14669095837E+04  0.14669968921E+04  0.10000000000E+02 0. -1.
</event>
<event>
 5    1  0.1360042E-008  0.3832380E+03  0.7957747E-01  0.3437180E+00
         13   -1    0    0    0    0  0.00000000000E+00  0.00000000000E+00  0.14999999963E+04  0.15000000000E+04  0.10566000000E+00 0.  1.
        994   -1    0    0    0    0 -0.00000000000E+00 -0.00000000000E+00  0.11368683772E-12  0.17120000000E+03  0.17120000000E+03 0.  0.
         13    1    1    2    0    0  0.27566705692E+02  0.14818729704E+02  0.18421158105E+03  0.18685137347E+03  0.10566000000E+00 0.  1.
        994    1    1    2    0    0 -0.20779665481E+02 -0.13372407618E+02  0.45297295130E+01  0.17303344831E+03  0.17120000000E+03 0.  0.
        998    1    1    2    0    0 -0.67870402115E+01 -0.14463220861E+01  0.13112586857E+04  0.13113151782E+04  0.10000000000E+02 0.  1.
</event>
<event>
 5    1  0.1360042E-008  0.3855838E+03  0.7957747E-01  0.3427200E+00
         13   -1    0    0    0    0  0.00000000000E+00  0.00000000000E+00  0.14999999963E+04  0.15000000000E+04  0.10566000000E+00 0.  1.
        994   -1    0    0    0    0 -0.00000000000E+00 -0.00000000000E+00  0.11368683772E-12  0.17120000000E+03  0.17120000000E+03 0.  0.
         13    1    1    2    0    0 -0.12306824230E+02 -0.79542801681E+01  0.87703526801E+02  0.88919335765E+02  0.10566000000E+00 0.  1.
        994    1    1    2    0    0  0.28042739491E+01 -0.56256459285E+01  0.14702649016E+01  0.17132166682E+03  0.17120000000E+03 0.  0.
        998    1    1    2    0    0  0.95025502812E+01  0.13579926097E+02  0.14108262046E+04  0.14109589974E+04  0.10000000000E+02 0.  1.
</event>
<event>
 5    1  0.1360042E-008  0.3854680E+03  0.7957747E-01  0.3427690E+00
         13   -1    0    0    0    0  0.00000000000E+00  0.00000000000E+00  0.14999999963E+04  0.15000000000E+04  0.10566000000E+00 0.  1.
        994   -1    0    0    0    0 -0.00000000000E+00 -0.00000000000E+00  0.11368683772E-12  0.17120000000E+03  0.17120000000E+03 0.  0.
         13    1    1    2    0    0 -0.14736189763E+02 -0.38228278456E+01  0.81821131016E+02  0.83225464530E+02  0.10566000000E+00 0.  1.
        994    1    1    2    0    0  0.11218077011E+02  0.55789341391E+01  0.19135849283E+01  0.17166849322E+03  0.17120000000E+03 0.  0.
        998    1    1    2    0    0  0.35181127514E+01 -0.17561062936E+01  0.14162652803E+04  0.14163060422E+04  0.10000000000E+02 0.  1.
</event>
<event>
 5    1  0.1360042E-008  0.3853856E+03  0.7957747E-01  0.3428038E+00
         13   -1    0    0    0    0  0.00000000000E+00  0.00000000000E+00  0.14999999963E+04  0.15000000000E+04  0.10566000000E+00 0. -1.
        994   -1    0    0    0    0 -0.00000000000E+00 -0.00000000000E+00  0.11368683772E-12  0.17120000000E+03  0.17120000000E+03 0.  0.
         13    1    1    2    0    0  0.11532577723E+02 -0.42111036435E+01  0.51757281358E+02  0.53193618794E+02  0.10566000000E+00 0. -1.
        994    1    1    2    0    0 -0.84101640918E+01  0.84060979067E+01  0.19033629360E+01  0.17162300584E+03  0.17120000000E+03 0.  0.
        998    1    1    2    0    0 -0.31224136307E+01 -0.41949942632E+01  0.14463393520E+04  0.14463833754E+04  0.10000000000E+02 0. -1.
</event>
<event>
 5    1  0.1360042E-008  0.3833085E+03  0.7957747E-01  0.3436878E+00
         13   -1    0    0    0    0  0.00000000000E+00  0.00000000000E+00  0.14999999963E+04  0.15000000000E+04  0.10566000000E+00 0.  1.
        994   -1    0    0    0    0 -0.00000000000E+00 -0.00000000000E+00  0.11368683772E-12  0.17120000000E+03  0.17120000000E+03 0.  0.
         13    1    1    2    0    0 -0.15643335052E+02 -0.46409233527E+01  0.63761006627E+02  0.65815873703E+02  0.10566000000E+00 0.  1.
        994    1    1    2    0    0 -0.21816340710E+02 -0.86270483899E+01  0.42943939196E+01  0.17285329185E+03  0.17120000000E+03 0.  0.
        998    1    1    2    0    0  0.37459675762E+02  0.13267971743E+02  0.14319445957E+04  0.14325308344E+04  0.10000000000E+02 0.  1.
</event>
<event>
 5    1  0.1360042E-008  0.3833593E+03  0.7957747E-01  0.3436661E+00
         13   -1    0    0    0    0  0.00000000000E+00  0.00000000000E+00  0.14999999963E+04  0.15000000000E+04  0.10566000000E+00 0. -1.
        994   -1    0    0    0    0 -0.00000000000E+00 -0.00000000000E+00  0.11368683772E-12  0.17120000000E+03  0.17120000000E+03 0.  0.
         13    1    1    2    0    0 -0.48140246829E+01  0.11062109487E+02  0.28656091568E+02  0.31092247393E+02  0.10566000000E+00 0. -1.
        994    1    1    2    0    0  0.89666507688E+01 -0.81200042326E+01  0.29308937782E+01  0.17165187279E+03  0.17120000000E+03 0.  0.
        998    1    1    2    0    0 -0.41526260859E+01 -0.29421052548E+01  0.14684130109E+04  0.14684558798E+04  0.10000000000E+02 0. -1.
</event>
<event>
 5    1  0.1360042E-008  0.3859135E+03  0.7957747E-01  0.3425807E+00
         13   -1    0    0    0    0  0.00000000000E+00  0.00000000000E+00  0.14999999963E+04  0.15000000000E+04  0.10566000000E+00 0.  1.
        994   -1    0    0    0    0 -0.00000000000E+00 -0.00000000000E+00  0.11368683772E-12  0.17120000000E+03  0.17120000000E+03 0.  0.
         13    1    1    2    0    0  0.64506298619E+02 -0.16343004725E+03  0.10449929822E+04  0.10596606942E+04  0.10566000000E+00 0.  1.
        994    1    1    2    0    0 -0.63517963731E+02  0.18915130407E+03  0.14488387727E+03  0.30018914943E+03  0.17120000000E+03 0.  0.
        998    1    1    2    0    0 -0.98833488820E+00 -0.25721256814E+02  0.31012313681E+03  0.31135015633E+03  0.10000000000E+02 0.  1.
</event>
<event>
 5    1  0.1360042E-008  0.3789183E+03  0.7957747E-01  0.3455882E+00
         13   -1    0    0    0    0  0.00000000000E+00  0.00000000000E+00  0.14999999963E+04  0.15000000000E+04  0.10566000000E+00 0.  1.
        994   -1    0    0    0    0 -0.00000000000E+00 -0.00000000000E+00  0.11368683772E-12  0.17120000000E+03  0.17120000000E+03 0.  0.
         13    1    1    2    0    0  0.66974740460E+02 -0.43079749447E+02  0.19632453990E+03  0.21186037100E+03  0.10566000000E+00 0.  1.
        994    1    1    2    0    0 -0.47767717869E+02  0.17470273720E+02  0.25130695656E+02  0.18035508642E+03  0.17120000000E+03 0.  0.
        998    1    1    2    0    0 -0.19207022591E+02  0.25609475727E+02  0.12785447607E+04  0.12789845426E+04  0.10000000000E+02 0.  1.
</event>
<event>
 5    1  0.1360042E-008  0.3798114E+03  0.7957747E-01  0.3451980E+00
         13   -1    0    0    0    0  0.00000000000E+00  0.00000000000E+00  0.14999999963E+04  0.15000000000E+04  0.10566000000E+00 0. -1.
        994   -1    0    0    0    0 -0.00000000000E+00 -0.00000000000E+00  0.11368683772E-12  0.17120000000E+03  0.17120000000E+03 0.  0.
         13    1    1    2    0    0  0.11287528523E+02  0.61568141867E+01  0.17585558788E+02  0.21784804406E+02  0.10566000000E+00 0. -1.
        994    1    1    2    0    0 -0.11925161274E+02 -0.50456942289E+01  0.47894120243E+01  0.17175577711E+03  0.17120000000E+03 0.  0.
        998    1    1    2    0    0  0.63763275182E+00 -0.11111199578E+01  0.14776250255E+04  0.14776594185E+04  0.10000000000E+02 0. -1.
</event>
<event>
 5    1  0.1360042E-008  0.3763971E+03  0.7957747E-01  0.3466998E+00
         13   -1    0    0    0    0  0.00000000000E+00  0.00000000000E+00  0.14999999963E+04  0.15000000000E+04  0.10566000000E+00 0. -1.
        994   -1    0    0    0    0 -0.00000000000E+00 -0.00000000000E+00  0.11368683772E-12  0.17120000000E+03  0.17120000000E+03 0.  0.
         13    1    1    2    0    0  0.19699363367E+02  0.29911281446E+02  0.10471236543E+03  0.11066815402E+03  0.10566000000E+00 0. -1.
        994    1    1    2    0    0 -0.12276352143E+02 -0.19845473865E+02  0.78075752534E+01  0.17295938797E+03  0.17120000000E+03 0.  0.
        998    1    1    2    0    0 -0.74230112244E+01 -0.10065807581E+02  0.13874800556E+04  0.13875724580E+04  0.10000000000E+02 0. -1.
</event>
<event>
 5    1  0.1360042E-008  0.3751867E+03  0.7957747E-01  0.3472388E+00
         13   -1    0    0    0    0  0.00000000000E+00  0.00000000000E+00  0.14999999963E+04  0.15000000000E+04  0.10566000000E+00 0. -1.
        994   -1    0    0    0    0 -0.00000000000E+00 -0.00000000000E+00  0.11368683772E-12  0.17120000000E+03  0.17120000000E+03 0.  0.
         13    1    1    2    0    0  0.12709751906E+02 -0.14513748120E+02  0.24659333336E+02  0.31309432487E+02  0.10566000000E+00 0. -1.
        994    1    1    2    0    0 -0.32617863221E+02  0.64122951521E+01  0.10345978848E+02  0.17470409786E+03  0.17120000000E+03 0.  0.
        998    1    1    2    0    0  0.19908111314E+02  0.81014529679E+01  0.14649946841E+04  0.14651864697E+04  0.10000000000E+02 0. -1.
</event>
<event>
 5    1  0.1360042E-008  0.3831541E+03  0.7957747E-01  0.3437539E+00
         13   -1    0    0    0    0  0.00000000000E+00  0.00000000000E+00  0.14999999963E+04  0.15000000000E+04  0.10566000000E+00 0.  1.
        994   -1    0    0    0    0 -0.00000000000E+00 -0.00000000000E+00  0.11368683772E-12  0.17120000000E+03  0.17120000000E+03 0.  0.
         13    1    1    2    0    0  0.96897939026E+01 -0.26388082277E+02  0.16278392484E+03  0.16519334231E+03  0.10566000000E+00 0.  1.
        994    1    1    2    0    0  0.12642630552E+01  0.11453572379E+02  0.29888189840E+01  0.17161339027E+03  0.17120000000E+03 0.  0.
        998    1    1    2    0    0 -0.10954056958E+02  0.14934509898E+02  0.13342272525E+04  0.13343932674E+04  0.10000000000E+02 0.  1.
</event>
<event>
 5    1  0.1360042E-008  0.3790659E+03  0.7957747E-01  0.3455236E+00
         13   -1    0    0    0    0  0.00000000000E+00  0.00000000000E+00  0.14999999963E+04  0.15000000000E+04  0.10566000000E+00 0. -1.
        994   -1    0    0    0    0 -0.00000000000E+00 -0.00000000000E+00  0.11368683772E-12  0.17120000000E+03  0.17120000000E+03 0.  0.
         13    1    1    2    0    0  0.21474901779E+02 -0.49486305427E+01  0.53751067975E+02  0.58093449055E+02  0.10566000000E+00 0. -1.
        994    1    1    2    0    0 -0.22049294324E+01 -0.88894389020E+01  0.48867312198E+01  0.17151444248E+03  0.17120000000E+03 0.  0.
        998    1    1    2    0    0 -0.19269972346E+02  0.13838069445E+02  0.14413621971E+04  0.14415921085E+04  0.10000000000E+02 0. -1.
</event>
<event>
 5    1  0.1360042E-008  0.3840320E+03  0.7957747E-01  0.3433788E+00
         13   -1    0    0    0    0  0.00000000000E+00  0.00000000000E+00  0.14999999963E+04  0.15000000000E+04  0.10566000000E+00 0. -1.
        994   -1    0    0    0    0 -0.00000000000E+00 -0.00000000000E+00  0.11368683772E-12  0.17120000000E+03  0.17120000000E+03 0.  0.
         13    1    1    2    0    0 -0.11230287903E+02 -0.11474426252E+02  0.64252783672E+02  0.66228492341E+02  0.10566000000E+00 0. -1.
        994    1    1    2    0    0  0.23647657868E+01 -0.20530765676E+01  0.21438729060E+01  0.17124206093E+03  0.17120000000E+03 0.  0.
        998    1    1    2    0    0  0.88655221158E+01  0.13527502819E+02  0.14336033397E+04  0.14337294467E+04  0.10000000000E+02 0. -1.
</event>
<event>
 5    1  0.1644053E-008  0.3852461E+03  0.7957747E-01  0.3428629E+00
         13   -1    0    0    0    0  0.00000000000E+00  0.00000000000E+00  0.14999999963E+04  0.15000000000E+04  0.10566000000E+00 0. -1.
        994   -1    0    0    0    0 -0.00000000000E+00 -0.00000000000E+00  0.11368683772E-12  0.17120000000E+03  0.17120000000E+03 0.  0.
         13    1    1    2    0    0 -0.13454434496E+02  0.61156516626E+01  0.76367636917E+02  0.77784639455E+02  0.10566000000E+00 0. -1.
        994    1    1    2    0    0  0.13165004072E+01 -0.35677755293E+01  0.15555366137E+01  0.17124929749E+03  0.17120000000E+03 0.  0.
        998    1    1    2    0    0  0.12137934089E+02 -0.25478761332E+01  0.14220768227E+04  0.14221660631E+04  0.10000000000E+02 0. -1.
</event>
<event>
 5    1  0.1360042E-008  0.3840916E+03  0.7957747E-01  0.3433534E+00
         13   -1    0    0    0    0  0.00000000000E+00  0.00000000000E+00  0.14999999963E+04  0.15000000000E+04  0.10566000000E+00 0. -1.
        994   -1    0    0    0    0 -0.00000000000E+00 -0.00000000000E+00  0.11368683772E-12  0.17120000000E+03  0.17120000000E+03 0.  0.
         13    1    1    2    0    0 -0.18632114824E+02 -0.12233284952E+02  0.11451767143E+03  0.11666669275E+03  0.10566000000E+00 0. -1.
        994    1    1    2    0    0  0.18201653056E+02  0.66984933439E+01  0.33235175097E+01  0.17232717649E+03  0.17120000000E+03 0.  0.
        998    1    1    2    0    0  0.43046176819E+00  0.55347916081E+01  0.13821588073E+04  0.13822061308E+04  0.10000000000E+02 0. -1.
</event>
<event>
 5    1  0.1360042E-008  0.3822279E+03  0.7957747E-01  0.3441515E+00
         13   -1    0    0    0    0  0.00000000000E+00  0.00000000000E+00  0.14999999963E+04  0.15000000000E+04  0.10566000000E+00 0.  1.
        994   -1    0    0    0    0 -0.00000000000E+00 -0.00000000000E+00  0.11368683772E-12  0.17120000000E+03  0.17120000000E+03 0.  0.
         13    1    1    2    0    0 -0.23053680179E+02  0.19302934857E+02  0.16039825068E+03  0.16319217337E+03  0.10566000000E+00 0.  1.
        994    1    1    2    0    0  0.13095143547E+02  0.25207395008E+01  0.36030762473E+01  0.17175639456E+03  0.17120000000E+03 0.  0.
        998    1    1    2    0    0  0.99585366314E+01 -0.21823674358E+02  0.13359986694E+04  0.13362514321E+04  0.10000000000E+02 0.  1.
</event>
<event>
 5    1  0.1360042E-008  0.3849392E+03  0.7957747E-01  0.3429930E+00
         13   -1    0    0    0    0  0.00000000000E+00  0.00000000000E+00  0.14999999963E+04  0.15000000000E+04  0.10566000000E+00 0.  1.
        994   -1    0    0    0    0 -0.00000000000E+00 -0.00000000000E+00  0.11368683772E-12  0.17120000000E+03  0.17120000000E+03 0.  0.
         13    1    1    2    0    0 -0.15314293529E+02 -0.18072195510E+01  0.70316943254E+02  0.71988035822E+02  0.10566000000E+00 0.  1.
        994    1    1    2    0    0  0.13450175359E+02 -0.36399472647E+01  0.22992256201E+01  0.17178149747E+03  0.17120000000E+03 0.  0.
        998    1    1    2    0    0  0.18641181705E+01  0.54471668156E+01  0.14273838274E+04  0.14274304667E+04  0.10000000000E+02 0.  1.
</event>
<event>
 5    1  0.1360042E-008  0.3798605E+03  0.7957747E-01  0.3451766E+00
         13   -1    0    0    0    0  0.00000000000E+00  0.00000000000E+00  0.14999999963E+04  0.15000000000E+04  0.10566000000E+00 0.  1.
        994   -1    0    0    0    0 -0.00000000000E+00 -0.00000000000E+00  0.11368683772E-12  0.17120000000E+03  0.17120000000E+03 0.  0.
         13    1    1    2    0    0  0.29561550109E+02  0.86814501191E+01  0.12994627744E+03  0.13354886374E+03  0.10566000000E+00 0.  1.
        994    1    1    2    0    0  0.47174913106E+01  0.95188620584E+01  0.45811140119E+01  0.17159047195E+03  0.17120000000E+03 0.  0.
        998    1    1    2    0    0 -0.34279041419E+02 -0.18200312178E+02  0.13654726048E+04  0.13660606643E+04  0.10000000000E+02 0.  1.
</event>
<event>
 5    1  0.1360042E-008  0.3849899E+03  0.7957747E-01  0.3429715E+00
         13   -1    0    0    0    0  0.00000000000E+00  0.00000000000E+00  0.14999999963E+04  0.15000000000E+04  0.10566000000E+00 0. -1.
        994   -1    0    0    0    0 -0.00000000000E+00 -0.00000000000E+00  0.11368683772E-12  0.17120000000E+03  0.17120000000E+03 0.  0.
         13    1    1    2    0    0  0.68797425618E-01  0.18118211323E+02  0.98081704326E+02  0.99741196114E+02  0.10566000000E+00 0. -1.
        994    1    1    2    0    0 -0.11693209517E+02 -0.14810923788E+02  0.28071519194E+01  0.17225973039E+03  0.17120000000E+03 0.  0.
        998    1    1    2    0    0  0.11624412091E+02 -0.33072875349E+01  0.13991111400E+04  0.13991990735E+04  0.10000000000E+02 0. -1.
</event>
<event>
 5    1  0.1360042E-008  0.3792936E+03  0.7957747E-01  0.3454240E+00
         13   -1    0    0    0    0  0.00000000000E+00  0.00000000000E+00  0.14999999963E+04  0.15000000000E+04  0.10566000000E+00 0. -1.
        994   -1    0    0    0    0 -0.00000000000E+00 -0.00000000000E+00  0.11368683772E-12  0.17120000000E+03  0.17120000000E+03 0.  0.
         13    1    1    2    0    0  0.64854606870E+01 -0.31641093436E+02  0.12053810407E+03  0.12479048718E+03  0.10566000000E+00 0. -1.
        994    1    1    2    0    0  0.41412428676E+01  0.11269167902E+02  0.49732972031E+01  0.17169250922E+03  0.17120000000E+03 0.  0.
        998    1    1    2    0    0 -0.10626703555E+02  0.20371925533E+02  0.13744885950E+04  0.13747170036E+04  0.10000000000E+02 0. -1.
</event>
<event>
 5    1  0.1360042E-008  0.3788946E+03  0.7957747E-01  0.3455986E+00
         13   -1    0    0    0    0  0.00000000000E+00  0.00000000000E+00  0.14999999963E+04  0.15000000000E+04  0.10566000000E+00 0.  1.
        994   -1    0    0    0    0 -0.00000000000E+00 -0.00000000000E+00  0.11368683772E-12  0.17120000000E+03  0.17120000000E+03 0.  0.
         13    1    1    2    0    0  0.17435101151E+02 -0.11650311935E+02  0.48304531122E+02  0.52659770330E+02  0.10566000000E+00 0.  1.
        994    1    1    2    0    0 -0.10891023597E+02 -0.26757400270E+02  0.74974079392E+01  0.17378211643E+03  0.17120000000E+03 0.  0.
        998    1    1    2    0    0 -0.65440775541E+01  0.38407712205E+02  0.14441980572E+04  0.14447581132E+04  0.10000000000E+02 0.  1.
</event>
<event>
 5    1  0.1360042E-008  0.3831742E+03  0.7957747E-01  0.3437453E+00
         13   -1    0    0    0    0  0.00000000000E+00  0.00000000000E+00  0.14999999963E+04  0.15000000000E+04  0.10566000000E+00 0.  1.
        994   -1    0    0    0    0 -0.00000000000E+00 -0.00000000000E+00  0.11368683772E-12  0.17120000000E+03  0.17120000000E+03 0.  0.
         13    1    1    2    0    0 -0.14313208742E+02 -0.95135553297E+01  0.58426299752E+02  0.60901718746E+02  0.10566000000E+00 0.  1.
        994    1    1    2    0    0  0.70827884397E+01  0.33866217375E+01  0.27432448652E+01  0.17140186840E+03  0.17120000000E+03 0.  0.
        998    1    1    2    0    0  0.72304203020E+01  0.61269335923E+01  0.14388304517E+04  0.14388964129E+04  0.10000000000E+02 0.  1.
</event>
<event>
 5    1  0.1360042E-008  0.3792173E+03  0.7957747E-01  0.3454574E+00
         13   -1    0    0    0    0  0.00000000000E+00  0.00000000000E+00  0.14999999963E+04  0.15000000000E+04  0.10566000000E+00 0.  1.
        994   -1    0    0    0    0 -0.00000000000E+00 -0.00000000000E+00  0.11368683772E-12  0.17120000000E+03  0.17120000000E+03 0.  0.
         13    1    1    2    0    0  0.91731176285E+01  0.17397671485E+02  0.41881922184E+02  0.46270202398E+02  0.10566000000E+00 0.  1.
        994    1    1    2    0    0 -0.78357418677E+00 -0.68458552739E+01  0.46879220486E+01  0.17140273141E+03  0.17120000000E+03 0.  0.
        998    1    1    2    0    0 -0.83895434418E+01 -0.10551816211E+02  0.14534301520E+04  0.14535270662E+04  0.10000000000E+02 0.  1.
</event>
<event>
 5    1  0.1360042E-008  0.3841355E+03  0.7957747E-01  0.3433347E+00
         13   -1    0    0    0    0  0.00000000000E+00  0.00000000000E+00  0.14999999963E+04  0.15000000000E+04  0.10566000000E+00 0. -1.
        994   -1    0    0    0    0 -0.00000000000E+00 -0.00000000000E+00  0.11368683772E-12  0.17120000000E+03  0.17120000000E+03 0.  0.
         13    1    1    2    0    0  0.12964232147E+00 -0.11284397488E+02  0.28776854026E+02  0.30910725088E+02  0.10566000000E+00 0. -1.
        994    1    1    2    0    0  0.67114379734E+01  0.21540721407E+02  0.37405320296E+01  0.17272080841E+03  0.17120000000E+03 0.  0.
        998    1    1    2    0    0 -0.68410802949E+01 -0.10256323920E+02  0.14674826102E+04  0.14675684665E+04  0.10000000000E+02 0. -1.
</event>
<event>
 5    1  0.1360042E-008  0.3755939E+03  0.7957747E-01  0.3470571E+00
         13   -1    0    0    0    0  0.00000000000E+00  0.00000000000E+00  0.14999999963E+04  0.15000000000E+04  0.10566000000E+00 0. -1.
        994   -1    0    0    0    0 -0.00000000000E+00 -0.00000000000E+00  0.11368683772E-12  0.17120000000E+03  0.17120000000E+03 0.  0.
         13    1    1    2    0    0 -0.34290459468E+02  0.58054980919E+01  0.11961732619E+03  0.12457068398E+03  0.10566000000E+00 0. -1.
        994    1    1    2    0    0 -0.56114185005E+01  0.10778514133E+03  0.46978100947E+02  0.20776310230E+03  0.17120000000E+03 0.  0.
        998    1    1    2    0    0  0.39901877968E+02 -0.11359063942E+03  0.13334045691E+04  0.13388662137E+04  0.10000000000E+02 0. -1.
</event>
<event>
 5    1  0.1360042E-008  0.3839672E+03  0.7957747E-01  0.3434064E+00
         13   -1    0    0    0    0  0.00000000000E+00  0.00000000000E+00  0.14999999963E+04  0.15000000000E+04  0.10566000000E+00 0. -1.
        994   -1    0    0    0    0 -0.00000000000E+00 -0.00000000000E+00  0.11368683772E-12  0.17120000000E+03  0.17120000000E+03 0.  0.
         13    1    1    2    0    0 -0.37717764294E+02 -0.13817918555E+02  0.23905231435E+03  0.24240376395E+03  0.10566000000E+00 0. -1.
        994    1    1    2    0    0  0.53175933967E+02  0.64292251258E+02  0.25462103591E+02  0.19214299947E+03  0.17120000000E+03 0.  0.
        998    1    1    2    0    0 -0.15458169673E+02 -0.50474332703E+02  0.12354855783E+04  0.12366532366E+04  0.10000000000E+02 0. -1.
</event>
<event>
 5    1  0.1360042E-008  0.3784316E+03  0.7957747E-01  0.3458016E+00
         13   -1    0    0    0    0  0.00000000000E+00  0.00000000000E+00  0.14999999963E+04  0.15000000000E+04  0.10566000000E+00 0. -1.
        994   -1    0    0    0    0 -0.00000000000E+00 -0.00000000000E+00  0.11368683772E-12  0.17120000000E+03  0.17120000000E+03 0.  0.
         13    1    1    2    0    0 -0.22431947908E+02 -0.60370753325E+01  0.52531910489E+02  0.57439109927E+02  0.10566000000E+00 0. -1.
        994    1    1    2    0    0  0.17008398888E+02  0.21544537316E+01  0.59152543960E+01  0.17215794358E+03  0.17120000000E+03 0.  0.
        998    1    1    2    0    0  0.54235490206E+01  0.38826216008E+01  0.14415528314E+04  0.14416029465E+04  0.10000000000E+02 0. -1.
</event>
<event>
 5    1  0.1360042E-008  0.3854616E+03  0.7957747E-01  0.3427717E+00
         13   -1    0    0    0    0  0.00000000000E+00  0.00000000000E+00  0.14999999963E+04  0.15000000000E+04  0.10566000000E+00 0.  1.
        994   -1    0    0    0    0 -0.00000000000E+00 -0.00000000000E+00  0.11368683772E-12  0.17120000000E+03  0.17120000000E+03 0.  0.
         13    1    1    2    0    0  0.63958476813E+01  0.80153994033E+01  0.39805650576E+02  0.41105406907E+02  0.10566000000E+00 0.  1.
        994    1    1    2    0    0  0.49540111499E+01  0.62863850603E+00  0.14830286371E+01  0.17127923630E+03  0.17120000000E+03 0.  0.
        998    1    1    2    0    0 -0.11349858831E+02 -0.86440379093E+01  0.14587113171E+04  0.14588153568E+04  0.10000000000E+02 0.  1.
</event>
<event>
 5    1  0.1360042E-008  0.3696255E+03  0.7957747E-01  0.3497614E+00
         13   -1    0    0    0    0  0.00000000000E+00  0.00000000000E+00  0.14999999963E+04  0.15000000000E+04  0.10566000000E+00 0.  1.
        994   -1    0    0    0    0 -0.00000000000E+00 -0.00000000000E+00  0.11368683772E-12  0.17120000000E+03  0.17120000000E+03 0.  0.
         13    1    1    2    0    0  0.18812689267E+02  0.10423947335E+02  0.17563006122E+02  0.27767720532E+02  0.10566000000E+00 0.  1.
        994    1    1    2    0    0  0.64199900838E+01 -0.10033844008E+02  0.11236484463E+02  0.17198137365E+03  0.17120000000E+03 0.  0.
        998    1    1    2    0    0 -0.25232679351E+02 -0.39010332629E+00  0.14712005057E+04  0.14714509058E+04  0.10000000000E+02 0.  1.
</event>
<event>
 5    1  0.1360042E-008  0.3702662E+03  0.7957747E-01  0.3494669E+00
         13   -1    0    0    0    0  0.00000000000E+00  0.00000000000E+00  0.14999999963E+04  0.15000000000E+04  0.10566000000E+00 0.  1.
        994   -1    0    0    0    0 -0.00000000000E+00 -0.00000000000E+00  0.11368683772E-12  0.17120000000E+03  0.17120000000E+03 0.  0.
         13    1    1    2    0    0 -0.15222017757E+02  0.46306682170E+01  0.97020975686E+01  0.18635846479E+02  0.10566000000E+00 0.  1.
        994    1    1    2    0    0  0.14586847186E+02 -0.40108830573E+01  0.99210013538E+01  0.17215321537E+03  0.17120000000E+03 0.  0.
        998    1    1    2    0    0  0.63517057063E+00 -0.61978515977E+00  0.14803768974E+04  0.14804109382E+04  0.10000000000E+02 0.  1.
</event>
<event>
 5    1  0.1360042E-008  0.3852899E+03  0.7957747E-01  0.3428444E+00
         13   -1    0    0    0    0  0.00000000000E+00  0.00000000000E+00  0.14999999963E+04  0.15000000000E+04  0.10566000000E+00 0.  1.
        994   -1    0    0    0    0 -0.00000000000E+00 -0.00000000000E+00  0.11368683772E-12  0.17120000000E+03  0.17120000000E+03 0.  0.
         13    1    1    2    0    0 -0.30716742565E+01 -0.98908583901E+01  0.36057066384E+02  0.37515163104E+02  0.10566000000E+00 0.  1.
        994    1    1    2    0    0 -0.81050586773E+00  0.75598778310E+01  0.16762456965E+01  0.17137694849E+03  0.17120000000E+03 0.  0.
        998    1    1    2    0    0  0.38821801242E+01  0.23309805590E+01  0.14622666842E+04  0.14623078884E+04  0.10000000000E+02 0.  1.
</event>
<event>
 5    1  0.1360042E-008  0.3816223E+03  0.7957747E-01  0.3444125E+00
         13   -1    0    0    0    0  0.00000000000E+00  0.00000000000E+00  0.14999999963E+04  0.15000000000E+04  0.10566000000E+00 0. -1.
        994   -1    0    0    0    0 -0.00000000000E+00 -0.00000000000E+00  0.11368683772E-12  0.17120000000E+03  0.17120000000E+03 0.  0.
         13    1    1    2    0    0 -0.34641560996E+02 -0.13282371529E+02  0.17209498518E+03  0.17604872686E+03  0.10566000000E+00 0. -1.
        994    1    1    2    0    0  0.27249761060E+02  0.72869972015E+02  0.23710311875E+02  0.18953680695E+03  0.17120000000E+03 0.  0.
        998    1    1    2    0    0  0.73917999368E+01 -0.59587600486E+02  0.13041946992E+04  0.13056144662E+04  0.10000000000E+02 0. -1.
</event>
<event>
 5    1  0.1360042E-008  0.3752614E+03  0.7957747E-01  0.3472055E+00
         13   -1    0    0    0    0  0.00000000000E+00  0.00000000000E+00  0.14999999963E+04  0.15000000000E+04  0.10566000000E+00 0. -1.
        994   -1    0    0    0    0 -0.00000000000E+00 -0.00000000000E+00  0.11368683772E-12  0.17120000000E+03  0.17120000000E+03 0.  0.
         13    1    1    2    0    0 -0.25673210014E+02  0.32031840343E+01  0.18261329286E+02  0.31667987175E+02  0.10566000000E+00 0. -1.
        994    1    1    2    0    0  0.25919127119E+02 -0.69825799787E+00  0.16146458271E+02  0.17390352736E+03  0.17120000000E+03 0.  0.
        998    1    1    2    0    0 -0.24591710509E+00 -0.25049260364E+01  0.14655922087E+04  0.14656284855E+04  0.10000000000E+02 0. -1.
</event>
<event>
 5    1  0.1360042E-008  0.3839083E+03  0.7957747E-01  0.3434316E+00
         13   -1    0    0    0    0  0.00000000000E+00  0.00000000000E+00  0.14999999963E+04  0.15000000000E+04  0.10566000000E+00 0.  1.
        994   -1    0    0    0    0 -0.00000000000E+00 -0.00000000000E+00  0.11368683772E-12  0.17120000000E+03  0.17120000000E+03 0.  0.
         13    1    1    2    0    0 -0.17325821711E+02 -0.13806796589E+00  0.69905533818E+02  0.72020816318E+02  0.10566000000E+00 0.  1.
        994    1    1    2    0    0  0.80287541437E+01 -0.39268985448E+01  0.24368161260E+01  0.17145045785E+03  0.17120000000E+03 0.  0.
        998    1    1    2    0    0  0.92970675673E+01  0.40649665107E+01  0.14276576463E+04  0.14277287258E+04  0.10000000000E+02 0.  1.
</event>
<event>
 5    1  0.1360042E-008  0.3904049E+03  0.7957747E-01  0.3407068E+00
         13   -1    0    0    0    0  0.00000000000E+00  0.00000000000E+00  0.14999999963E+04  0.15000000000E+04  0.10566000000E+00 0.  1.
        994   -1    0    0    0    0 -0.00000000000E+00 -0.00000000000E+00  0.11368683772E-12  0.17120000000E+03  0.17120000000E+03 0.  0.
         13    1    1    2    0    0 -0.22724993495E+02 -0.41411382911E+02  0.41392448340E+02  0.62806639040E+02  0.10566000000E+00 0.  1.
        994    1    1    2    0    0  0.50872669042E+02  0.19659009541E+02  0.33459332110E+02  0.18276616759E+03  0.17120000000E+03 0.  0.
        998    1    1    2    0    0 -0.28147675546E+02  0.21752373370E+02  0.14251482158E+04  0.14256271934E+04  0.10000000000E+02 0.  1.
</event>
<event>
 5    1  0.1360042E-008  0.3796926E+03  0.7957747E-01  0.3452498E+00
         13   -1    0    0    0    0  0.00000000000E+00  0.00000000000E+00  0.14999999963E+04  0.15000000000E+04  0.10566000000E+00 0. -1.
        994   -1    0    0    0    0 -0.00000000000E+00 -0.00000000000E+00  0.11368683772E-12  0.17120000000E+03  0.17120000000E+03 0.  0.
         13    1    1    2    0    0  0.35396441603E+02 -0.20346025284E+02  0.18189365857E+03  0.18641937404E+03  0.10566000000E+00 0. -1.
        994    1    1    2    0    0 -0.30517527641E+02  0.11682617957E+02  0.78698678398E+01  0.17446827183E+03  0.17120000000E+03 0.  0.
        998    1    1    2    0    0 -0.48789139625E+01  0.86634073271E+01  0.13102364699E+04  0.13103123541E+04  0.10000000000E+02 0. -1.
</event>
<event>
 5    1  0.1360042E-008  0.3812215E+03  0.7957747E-01  0.3445857E+00
         13   -1    0    0    0    0  0.00000000000E+00  0.00000000000E+00  0.14999999963E+04  0.15000000000E+04  0.10566000000E+00 0.  1.
        994   -1    0    0    0    0 -0.00000000000E+00 -0.00000000000E+00  0.11368683772E-12  0.17120000000E+03  0.17120000000E+03 0.  0.
         13    1    1    2    0    0  0.20969796988E+02 -0.20402825991E+01  0.64928178544E+02  0.68261077284E+02  0.10566000000E+00 0.  1.
        994    1    1    2    0    0 -0.19799205098E+01  0.90500799472E+01  0.38036186255E+01  0.17149265741E+03  0.17120000000E+03 0.  0.
        998    1    1    2    0    0 -0.18989876478E+02 -0.70097973481E+01  0.14312681991E+04  0.14314462653E+04  0.10000000000E+02 0.  1.
</event>
<event>
 5    1  0.1360042E-008  0.3801673E+03  0.7957747E-01  0.3450430E+00
         13   -1    0    0    0    0  0.00000000000E+00  0.00000000000E+00  0.14999999963E+04  0.15000000000E+04  0.10566000000E+00 0. -1.
        994   -1    0    0    0    0 -0.00000000000E+00 -0.00000000000E+00  0.11368683772E-12  0.17120000000E+03  0.17120000000E+03 0.  0.
         13    1    1    2    0    0 -0.45326915524E+01  0.26358136066E+02  0.87651257121E+02  0.91640878806E+02  0.10566000000E+00 0. -1.
        994    1    1    2    0    0 -0.32347619276E+01 -0.15595570960E+02  0.48967450372E+01  0.17200902194E+03  0.17120000000E+03 0.  0.
        998    1    1    2    0    0  0.77674534800E+01 -0.10762565105E+02  0.14074519941E+04  0.14075500992E+04  0.10000000000E+02 0. -1.
</event>
<event>
 5    1  0.1360042E-008  0.3703724E+03  0.7957747E-01  0.3494181E+00
         13   -1    0    0    0    0  0.00000000000E+00  0.00000000000E+00  0.14999999963E+04  0.15000000000E+04  0.10566000000E+00 0. -1.
        994   -1    0    0    0    0 -0.00000000000E+00 -0.00000000000E+00  0.11368683772E-12  0.17120000000E+03  0.17120000000E+03 0.  0.
         13    1    1    2    0    0 -0.22278010994E+02  0.80493787762E-01  0.23321591521E+02  0.32252504526E+02  0.10566000000E+00 0. -1.
        994    1    1    2    0    0  0.19425276365E+02  0.21334628529E+01  0.10394415329E+02  0.17262496023E+03  0.17120000000E+03 0.  0.
        998    1    1    2    0    0  0.28527346291E+01 -0.22139566407E+01  0.14662839894E+04  0.14663225352E+04  0.10000000000E+02 0. -1.
</event>
<event>
 5    1  0.1360042E-008  0.3850640E+03  0.7957747E-01  0.3429401E+00
         13   -1    0    0    0    0  0.00000000000E+00  0.00000000000E+00  0.14999999963E+04  0.15000000000E+04  0.10566000000E+00 0. -1.
        994   -1    0    0    0    0 -0.00000000000E+00 -0.00000000000E+00  0.11368683772E-12  0.17120000000E+03  0.17120000000E+03 0.  0.
         13    1    1    2    0    0 -0.13210293788E+02  0.10196701187E+02  0.83342158919E+02  0.84996536367E+02  0.10566000000E+00 0. -1.
        994    1    1    2    0    0  0.15742502026E+02 -0.76680148504E+01  0.26071955184E+01  0.17211293470E+03  0.17120000000E+03 0.  0.
        998    1    1    2    0    0 -0.25322082376E+01 -0.25286863364E+01  0.14140506418E+04  0.14140905289E+04  0.10000000000E+02 0. -1.
</event>
<event>
 5    1  0.1360042E-008  0.3188193E+03  0.7957747E-01  0.3770198E+00
         13   -1    0    0    0    0  0.00000000000E+00  0.00000000000E+00  0.14999999963E+04  0.15000000000E+04  0.10566000000E+00 0.  1.
        994   -1    0    0    0    0 -0.00000000000E+00 -0.00000000000E+00  0.11368683772E-12  0.17120000000E+03  0.17120000000E+03 0.  0.
         13    1    1    2    0    0 -0.14595537911E+03  0.14523454249E+03  0.75319318353E+03  0.78083034515E+03  0.10566000000E+00 0.  1.
        994    1    1    2    0    0  0.15186066459E+03 -0.13258884402E+03  0.17240766880E+03  0.31571396433E+03  0.17120000000E+03 0.  0.
        998    1    1    2    0    0 -0.59052854808E+01 -0.12645698475E+02  0.57439914395E+03  0.57465569052E+03  0.10000000000E+02 0.  1.
</event>
<event>
 5    1  0.1360042E-008  0.3755402E+03  0.7957747E-01  0.3470810E+00
         13   -1    0    0    0    0  0.00000000000E+00  0.00000000000E+00  0.14999999963E+04  0.15000000000E+04  0.10566000000E+00 0. -1.
        994   -1    0    0    0    0 -0.00000000000E+00 -0.00000000000E+00  0.11368683772E-12  0.17120000000E+03  0.17120000000E+03 0.  0.
         13    1    1    2    0    0 -0.55921081842E+02 -0.75753043080E+01  0.22562534518E+03  0.23257549351E+03  0.10566000000E+00 0. -1.
        994    1    1    2    0    0  0.43387427983E+02  0.29062136263E+02  0.15711361655E+02  0.17967571777E+03  0.17120000000E+03 0.  0.
        998    1    1    2    0    0  0.12533653859E+02 -0.21486831955E+02  0.12586632894E+04  0.12589487887E+04  0.10000000000E+02 0. -1.
</event>
<event>
 5    1  0.1360042E-008  0.3839153E+03  0.7957747E-01  0.3434286E+00
         13   -1    0    0    0    0  0.00000000000E+00  0.00000000000E+00  0.14999999963E+04  0.15000000000E+04  0.10566000000E+00 0.  1.
        994   -1    0    0    0    0 -0.00000000000E+00 -0.00000000000E+00  0.11368683772E-12  0.17120000000E+03  0.17120000000E+03 0.  0.
         13    1    1    2    0    0 -0.11626070243E+02 -0.10830675352E+02  0.57928436531E+02  0.60068160958E+02  0.10566000000E+00 0.  1.
        994    1    1    2    0    0  0.76357227723E+01  0.60416067082E+01  0.24825792995E+01  0.17149463104E+03  0.17120000000E+03 0.  0.
        998    1    1    2    0    0  0.39903474705E+01  0.47890686436E+01  0.14395889804E+04  0.14396372080E+04  0.10000000000E+02 0.  1.
</event>
<event>
 5    1  0.1360042E-008  0.3957059E+03  0.7957747E-01  0.3385499E+00
         13   -1    0    0    0    0  0.00000000000E+00  0.00000000000E+00  0.14999999963E+04  0.15000000000E+04  0.10566000000E+00 0.  1.
        994   -1    0    0    0    0 -0.00000000000E+00 -0.00000000000E+00  0.11368683772E-12  0.17120000000E+03  0.17120000000E+03 0.  0.
         13    1    1    2    0    0 -0.12337230865E+03  0.75802433886E+02  0.37461451074E+03  0.40162517145E+03  0.10566000000E+00 0.  1.
        994    1    1    2    0    0  0.97358809664E+02 -0.41277967600E+02  0.69697565360E+02  0.21295492257E+03  0.17120000000E+03 0.  0.
        998    1    1    2    0    0  0.26013498984E+02 -0.34524466286E+02  0.10556879202E+04  0.10566199060E+04  0.10000000000E+02 0.  1.
</event>
<event>
 5    1  0.1360042E-008  0.3777141E+03  0.7957747E-01  0.3461172E+00
         13   -1    0    0    0    0  0.00000000000E+00  0.00000000000E+00  0.14999999963E+04  0.15000000000E+04  0.10566000000E+00 0.  1.
        994   -1    0    0    0    0 -0.00000000000E+00 -0.00000000000E+00  0.11368683772E-12  0.17120000000E+03  0.17120000000E+03 0.  0.
         13    1    1    2    0    0 -0.10928743548E+02 -0.87841619831E+01  0.16335612556E+02  0.21528175466E+02  0.10566000000E+00 0.  1.
        994    1    1    2    0    0  0.84840094517E+01  0.33383923293E+01  0.55715424293E+01  0.17153310282E+03  0.17120000000E+03 0.  0.
        998    1    1    2    0    0  0.24447340967E+01  0.54457696538E+01  0.14780928413E+04  0.14781387217E+04  0.10000000000E+02 0.  1.
</event>
<event>
 5    1  0.1360042E-008  0.3814939E+03  0.7957747E-01  0.3444680E+00
         13   -1    0    0    0    0  0.00000000000E+00  0.00000000000E+00  0.14999999963E+04  0.15000000000E+04  0.10566000000E+00 0.  1.
        994   -1    0    0    0    0 -0.00000000000E+00 -0.00000000000E+00  0.11368683772E-12  0.17120000000E+03  0.17120000000E+03 0.  0.
         13    1    1    2    0    0  0.24802799168E+01 -0.20995844547E+02  0.67116882611E+02  0.70368063581E+02  0.10566000000E+00 0.  1.
        994    1    1    2    0    0  0.12869861296E+02  0.81285357706E+01  0.41520903350E+01  0.17192552538E+03  0.17120000000E+03 0.  0.
        998    1    1    2    0    0 -0.15350141213E+02  0.12867308776E+02  0.14287310233E+04  0.14289064110E+04  0.10000000000E+02 0.  1.
</event>
<event>
 5    1  0.1360042E-008  0.3852572E+03  0.7957747E-01  0.3428582E+00
         13   -1    0    0    0    0  0.00000000000E+00  0.00000000000E+00  0.14999999963E+04  0.15000000000E+04  0.10566000000E+00 0. -1.
        994   -1    0    0    0    0 -0.00000000000E+00 -0.00000000000E+00  0.11368683772E-12  0.17120000000E+03  0.17120000000E+03 0.  0.
         13    1    1    2    0    0 -0.13308441334E+02  0.87982046792E+01  0.82601303500E+02  0.84127935433E+02  0.10566000000E+00 0. -1.
        994    1    1    2    0    0  0.10610166330E+02 -0.95851855921E+01  0.21745863097E+01  0.17180983743E+03  0.17120000000E+03 0.  0.
        998    1    1    2    0    0  0.26982750040E+01  0.78698091284E+00  0.14152241065E+04  0.14152622271E+04  0.10000000000E+02 0. -1.
</event>
<event>
 5    1  0.1360042E-008  0.3850946E+03  0.7957747E-01  0.3429271E+00
         13   -1    0    0    0    0  0.00000000000E+00  0.00000000000E+00  0.14999999963E+04  0.15000000000E+04  0.10566000000E+00 0.  1.
        994   -1    0    0    0    0 -0.00000000000E+00 -0.00000000000E+00  0.11368683772E-12  0.17120000000E+03  0.17120000000E+03 0.  0.
         13    1    1    2    0    0 -0.12203167686E+02  0.47623035293E+01  0.55958417417E+02  0.57471318763E+02  0.10566000000E+00 0.  1.
        994    1    1    2    0    0  0.71961131683E+01  0.86208364154E+01  0.19978898038E+01  0.17157952800E+03  0.17120000000E+03 0.  0.
        998    1    1    2    0    0  0.50070545176E+01 -0.13383139945E+02  0.14420436891E+04  0.14421491532E+04  0.10000000000E+02 0.  1.
</event>
<event>
 5    1  0.1360042E-008  0.3800303E+03  0.7957747E-01  0.3451027E+00
         13   -1    0    0    0    0  0.00000000000E+00  0.00000000000E+00  0.14999999963E+04  0.15000000000E+04  0.10566000000E+00 0.  1.
        994   -1    0    0    0    0 -0.00000000000E+00 -0.00000000000E+00  0.11368683772E-12  0.17120000000E+03  0.17120000000E+03 0.  0.
         13    1    1    2    0    0 -0.23895261326E+02  0.15808328836E+02  0.10158357535E+03  0.10554677029E+03  0.10566000000E+00 0.  1.
        994    1    1    2    0    0  0.41801576770E+01 -0.13834754974E+02  0.48163517223E+01  0.17187644227E+03  0.17120000000E+03 0.  0.
        998    1    1    2    0    0  0.19715103649E+02 -0.19735738620E+01  0.13936000692E+04  0.13937767874E+04  0.10000000000E+02 0.  1.
</event>
<event>
 5    1  0.1360042E-008  0.3757408E+03  0.7957747E-01  0.3469916E+00
         13   -1    0    0    0    0  0.00000000000E+00  0.00000000000E+00  0.14999999963E+04  0.15000000000E+04  0.10566000000E+00 0. -1.
        994   -1    0    0    0    0 -0.00000000000E+00 -0.00000000000E+00  0.11368683772E-12  0.17120000000E+03  0.17120000000E+03 0.  0.
         13    1    1    2    0    0 -0.18934823912E+02 -0.22050679065E+02  0.65979517308E+02  0.72097627367E+02  0.10566000000E+00 0. -1.
        994    1    1    2    0    0  0.15279967443E+01  0.15960822660E+02  0.71709633311E+01  0.17209865005E+03  0.17120000000E+03 0.  0.
        998    1    1    2    0    0  0.17406827167E+02  0.60898564042E+01  0.14268495156E+04  0.14270037226E+04  0.10000000000E+02 0. -1.
</event>
<event>
 5    1  0.1360042E-008  0.3797094E+03  0.7957747E-01  0.3452425E+00
         13   -1    0    0    0    0  0.00000000000E+00  0.00000000000E+00  0.14999999963E+04  0.15000000000E+04  0.10566000000E+00 0. -1.
        994   -1    0    0    0    0 -0.00000000000E+00 -0.00000000000E+00  0.11368683772E-12  0.17120000000E+03  0.17120000000E+03 0.  0.
         13    1    1    2    0    0  0.88690214053E+01 -0.35076560791E+02  0.14598323405E+03  0.15039993499E+03  0.10566000000E+00 0. -1.
        994    1    1    2    0    0 -0.69668401783E+01  0.26429583918E+02  0.67836734141E+01  0.17350077231E+03  0.17120000000E+03 0.  0.
        998    1    1    2    0    0 -0.19021812270E+01  0.86469768724E+01  0.13472330888E+04  0.13472992927E+04  0.10000000000E+02 0. -1.
</event>
<event>
 5    1  0.1360042E-008  0.3702394E+03  0.7957747E-01  0.3494791E+00
         13   -1    0    0    0    0  0.00000000000E+00  0.00000000000E+00  0.14999999963E+04  0.15000000000E+04  0.10566000000E+00 0. -1.
        994   -1    0    0    0    0 -0.00000000000E+00 -0.00000000000E+00  0.11368683772E-12  0.17120000000E+03  0.17120000000E+03 0.  0.
         13    1    1    2    0    0 -0.24044316653E+02 -0.28287252722E+02  0.57637078619E+02  0.68559038978E+02  0.10566000000E+00 0. -1.
        994    1    1    2    0    0 -0.20986958477E+01  0.38024649572E+02  0.16156958854E+02  0.17612712971E+03  0.17120000000E+03 0.  0.
        998    1    1    2    0    0  0.26143012501E+02 -0.97373968492E+01  0.14262059588E+04  0.14265138313E+04  0.10000000000E+02 0. -1.
</event>
<event>
 5    1  0.1360042E-008  0.3795380E+03  0.7957747E-01  0.3453173E+00
         13   -1    0    0    0    0  0.00000000000E+00  0.00000000000E+00  0.14999999963E+04  0.15000000000E+04  0.10566000000E+00 0. -1.
        994   -1    0    0    0    0 -0.00000000000E+00 -0.00000000000E+00  0.11368683772E-12  0.17120000000E+03  0.17120000000E+03 0.  0.
         13    1    1    2    0    0  0.89685629915E+01  0.28839717629E+02  0.11050836126E+03  0.11456122165E+03  0.10566000000E+00 0. -1.
        994    1    1    2    0    0  0.29090947333E+01 -0.60992128116E+01  0.45194645433E+01  0.17139290764E+03  0.17120000000E+03 0.  0.
        998    1    1    2    0    0 -0.11877657725E+02 -0.22740504818E+02  0.13849721705E+04  0.13852458707E+04  0.10000000000E+02 0. -1.
</event>
<event>
 5    1  0.1360042E-008  0.3840262E+03  0.7957747E-01  0.3433813E+00
         13   -1    0    0    0    0  0.00000000000E+00  0.00000000000E+00  0.14999999963E+04  0.15000000000E+04  0.10566000000E+00 0.  1.
        994   -1    0    0    0    0 -0.00000000000E+00 -0.00000000000E+00  0.11368683772E-12  0.17120000000E+03  0.17120000000E+03 0.  0.
         13    1    1    2    0    0 -0.52987783890E+01 -0.15680101596E+02  0.67664321042E+02  0.69659271778E+02  0.10566000000E+00 0.  1.
        994    1    1    2    0    0  0.35608333665E+01  0.10318211389E+01  0.21597304654E+01  0.17125375507E+03  0.17120000000E+03 0.  0.
        998    1    1    2    0    0  0.17379450225E+01  0.14648280457E+02  0.14301759448E+04  0.14302869732E+04  0.10000000000E+02 0.  1.
</event>
<event>
 5    1  0.1360042E-008  0.3859564E+03  0.7957747E-01  0.3425626E+00
         13   -1    0    0    0    0  0.00000000000E+00  0.00000000000E+00  0.14999999963E+04  0.15000000000E+04  0.10566000000E+00 0. -1.
        994   -1    0    0    0    0 -0.00000000000E+00 -0.00000000000E+00  0.11368683772E-12  0.17120000000E+03  0.17120000000E+03 0.  0.
         13    1    1    2    0    0 -0.41361106673E+01 -0.11063030750E+02  0.59997214931E+02  0.61148794136E+02  0.10566000000E+00 0. -1.
        994    1    1    2    0    0  0.80376547837E+01  0.79416369856E+01  0.15747122191E+01  0.17157969930E+03  0.17120000000E+03 0.  0.
        998    1    1    2    0    0 -0.39015441164E+01  0.31213937644E+01  0.14384280691E+04  0.14384715066E+04  0.10000000000E+02 0. -1.
</event>
<event>
 5    1  0.1360042E-008  0.3808500E+03  0.7957747E-01  0.3447466E+00
         13   -1    0    0    0    0  0.00000000000E+00  0.00000000000E+00  0.14999999963E+04  0.15000000000E+04  0.10566000000E+00 0. -1.
        994   -1    0    0    0    0 -0.00000000000E+00 -0.00000000000E+00  0.11368683772E-12  0.17120000000E+03  0.17120000000E+03 0.  0.
         13    1    1    2    0    0  0.82337467075E+01  0.30726867695E+02  0.13255756197E+03  0.13632114063E+03  0.10566000000E+00 0. -1.
        994    1    1    2    0    0  0.13784261235E+01 -0.23468088110E+02  0.55491384616E+01  0.17289558744E+03  0.17120000000E+03 0.  0.
        998    1    1    2    0    0 -0.96121728310E+01 -0.72587795850E+01  0.13618932958E+04  0.13619832719E+04  0.10000000000E+02 0. -1.
</event>
<event>
 5    1  0.1360042E-008  0.3847391E+03  0.7957747E-01  0.3430780E+00
         13   -1    0    0    0    0  0.00000000000E+00  0.00000000000E+00  0.14999999963E+04  0.15000000000E+04  0.10566000000E+00 0. -1.
        994   -1    0    0    0    0 -0.00000000000E+00 -0.00000000000E+00  0.11368683772E-12  0.17120000000E+03  0.17120000000E+03 0.  0.
         13    1    1    2    0    0 -0.12240705234E+02  0.12431984011E+02  0.10211009939E+03  0.10358992544E+03  0.10566000000E+00 0. -1.
        994    1    1    2    0    0 -0.11175951709E+02  0.28321908062E+01  0.21973608137E+01  0.17160184030E+03  0.17120000000E+03 0.  0.
        998    1    1    2    0    0  0.23416656943E+02 -0.15264174817E+02  0.13956925361E+04  0.13960082343E+04  0.10000000000E+02 0. -1.
</event>
<event>
 5    1  0.1360042E-008  0.3826325E+03  0.7957747E-01  0.3439776E+00
         13   -1    0    0    0    0  0.00000000000E+00  0.00000000000E+00  0.14999999963E+04  0.15000000000E+04  0.10566000000E+00 0.  1.
        994   -1    0    0    0    0 -0.00000000000E+00 -0.00000000000E+00  0.11368683772E-12  0.17120000000E+03  0.17120000000E+03 0.  0.
         13    1    1    2    0    0  0.30051463253E+02 -0.40997108189E+00  0.15314091712E+03  0.15606219972E+03  0.10566000000E+00 0.  1.
        994    1    1    2    0    0 -0.24013623157E+02 -0.14248917326E+02  0.53983822283E+01  0.17354615603E+03  0.17120000000E+03 0.  0.
        998    1    1    2    0    0 -0.60378400966E+01  0.14658888408E+02  0.13414606969E+04  0.13415916442E+04  0.10000000000E+02 0.  1.
</event>
<event>
 5    1  0.1360042E-008  0.3745158E+03  0.7957747E-01  0.3475391E+00
         13   -1    0    0    0    0  0.00000000000E+00  0.00000000000E+00  0.14999999963E+04  0.15000000000E+04  0.10566000000E+00 0. -1.
        994   -1    0    0    0    0 -0.00000000000E+00 -0.00000000000E+00  0.11368683772E-12  0.17120000000E+03  0.17120000000E+03 0.  0.
         13    1    1    2    0    0  0.20735789380E+01  0.35036632419E+02  0.80467856980E+02  0.87789250549E+02  0.10566000000E+00 0. -1.
        994    1    1    2    0    0 -0.45427510876E+01 -0.40530893815E+02  0.12612153936E+02  0.17644233156E+03  0.17120000000E+03 0.  0.
        998    1    1    2    0    0  0.24691721496E+01  0.54942613963E+01  0.14069199854E+04  0.14069684179E+04  0.10000000000E+02 0. -1.
</event>
<event>
 5    1  0.1360042E-008  0.3706250E+03  0.7957747E-01  0.3493024E+00
         13   -1    0    0    0    0  0.00000000000E+00  0.00000000000E+00  0.14999999963E+04  0.15000000000E+04  0.10566000000E+00 0. -1.
        994   -1    0    0    0    0 -0.00000000000E+00 -0.00000000000E+00  0.11368683772E-12  0.17120000000E+03  0.17120000000E+03 0.  0.
         13    1    1    2    0    0 -0.28244707147E+02  0.61441560434E+02  0.23208615480E+03  0.24173709530E+03  0.10566000000E+00 0. -1.
        994    1    1    2    0    0 -0.40320386050E+02 -0.33397249151E+02  0.20936098949E+02  0.18024669212E+03  0.17120000000E+03 0.  0.
        998    1    1    2    0    0  0.68565093197E+02 -0.28044311283E+02  0.12469777425E+04  0.12492162126E+04  0.10000000000E+02 0. -1.
</event>
<event>
 5    1  0.1360042E-008  0.3701032E+03  0.7957747E-01  0.3495417E+00
         13   -1    0    0    0    0  0.00000000000E+00  0.00000000000E+00  0.14999999963E+04  0.15000000000E+04  0.10566000000E+00 0.  1.
        994   -1    0    0    0    0 -0.00000000000E+00 -0.00000000000E+00  0.11368683772E-12  0.17120000000E+03  0.17120000000E+03 0.  0.
         13    1    1    2    0    0  0.42636620969E+02  0.19012995051E+02  0.11381958585E+03  0.12302148071E+03  0.10566000000E+00 0.  1.
        994    1    1    2    0    0 -0.27637973045E+02 -0.15575336057E+02  0.12701755789E+02  0.17457727013E+03  0.17120000000E+03 0.  0.
        998    1    1    2    0    0 -0.14998647924E+02 -0.34376589937E+01  0.13734786546E+04  0.13736012492E+04  0.10000000000E+02 0.  1.
</event>
<event>
 5    1  0.1360042E-008  0.3847045E+03  0.7957747E-01  0.3430926E+00
         13   -1    0    0    0    0  0.00000000000E+00  0.00000000000E+00  0.14999999963E+04  0.15000000000E+04  0.10566000000E+00 0.  1.
        994   -1    0    0    0    0 -0.00000000000E+00 -0.00000000000E+00  0.11368683772E-12  0.17120000000E+03  0.17120000000E+03 0.  0.
         13    1    1    2    0    0  0.37519740810E+01  0.15440865595E+02  0.75022995620E+02  0.76687408847E+02  0.10566000000E+00 0.  1.
        994    1    1    2    0    0  0.81009915411E+01 -0.39703238551E+01  0.20448760517E+01  0.17144973331E+03  0.17120000000E+03 0.  0.
        998    1    1    2    0    0 -0.11852965622E+02 -0.11470541740E+02  0.14229321246E+04  0.14230628578E+04  0.10000000000E+02 0.  1.
</event>
<event>
 5    1  0.1360042E-008  0.3807805E+03  0.7957747E-01  0.3447767E+00
         13   -1    0    0    0    0  0.00000000000E+00  0.00000000000E+00  0.14999999963E+04  0.15000000000E+04  0.10566000000E+00 0. -1.
        994   -1    0    0    0    0 -0.00000000000E+00 -0.00000000000E+00  0.11368683772E-12  0.17120000000E+03  0.17120000000E+03 0.  0.
         13    1    1    2    0    0 -0.32183110115E+02 -0.23586700997E+02  0.19548547782E+03  0.19951608517E+03  0.10566000000E+00 0. -1.
        994    1    1    2    0    0  0.13794904196E+02  0.39398356504E+02  0.95717372813E+01  0.17647546014E+03  0.17120000000E+03 0.  0.
        998    1    1    2    0    0  0.18388205918E+02 -0.15811655508E+02  0.12949427812E+04  0.12952084547E+04  0.10000000000E+02 0. -1.
</event>
<event>
 5    1  0.1360042E-008  0.3777759E+03  0.7957747E-01  0.3460900E+00
         13   -1    0    0    0    0  0.00000000000E+00  0.00000000000E+00  0.14999999963E+04  0.15000000000E+04  0.10566000000E+00 0. -1.
        994   -1    0    0    0    0 -0.00000000000E+00 -0.00000000000E+00  0.11368683772E-12  0.17120000000E+03  0.17120000000E+03 0.  0.
         13    1    1    2    0    0 -0.17097567707E+02 -0.41176821113E+00  0.26438336661E+02  0.31487984756E+02  0.10566000000E+00 0. -1.
        994    1    1    2    0    0  0.47077147874E+00 -0.58929696751E+01  0.53778107345E+01  0.17138643344E+03  0.17120000000E+03 0.  0.
        998    1    1    2    0    0  0.16626796228E+02  0.63047378862E+01  0.14681838489E+04  0.14683255818E+04  0.10000000000E+02 0. -1.
</event>
<event>
 5    1  0.1360042E-008  0.3744718E+03  0.7957747E-01  0.3475588E+00
         13   -1    0    0    0    0  0.00000000000E+00  0.00000000000E+00  0.14999999963E+04  0.15000000000E+04  0.10566000000E+00 0.  1.
        994   -1    0    0    0    0 -0.00000000000E+00 -0.00000000000E+00  0.11368683772E-12  0.17120000000E+03  0.17120000000E+03 0.  0.
         13    1    1    2    0    0 -0.77559930655E+01 -0.52729787604E+02  0.19166482358E+03  0.19893718026E+03  0.10566000000E+00 0.  1.
        994    1    1    2    0    0  0.28393718729E+02  0.36985496636E+02  0.14389981589E+02  0.17801865575E+03  0.17120000000E+03 0.  0.
        998    1    1    2    0    0 -0.20637725663E+02  0.15744290968E+02  0.12939451911E+04  0.12942441640E+04  0.10000000000E+02 0.  1.
</event>
<event>
 5    1  0.1360042E-008  0.3800181E+03  0.7957747E-01  0.3451080E+00
         13   -1    0    0    0    0  0.00000000000E+00  0.00000000000E+00  0.14999999963E+04  0.15000000000E+04  0.10566000000E+00 0. -1.
        994   -1    0    0    0    0 -0.00000000000E+00 -0.00000000000E+00  0.11368683772E-12  0.17120000000E+03  0.17120000000E+03 0.  0.
         13    1    1    2    0    0  0.27272865830E+02  0.32381366188E+02  0.20273068710E+03  0.20710409156E+03  0.10566000000E+00 0. -1.
        994    1    1    2    0    0 -0.10250095479E+02 -0.34825388827E+02  0.85418754623E+01  0.17521494172E+03  0.17120000000E+03 0.  0.
        998    1    1    2    0    0 -0.17022770351E+02  0.24440226389E+01  0.12887274337E+04  0.12888809667E+04  0.10000000000E+02 0. -1.
</event>
<event>
 5    1  0.1360042E-008  0.3831568E+03  0.7957747E-01  0.3437527E+00
         13   -1    0    0    0    0  0.00000000000E+00  0.00000000000E+00  0.14999999963E+04  0.15000000000E+04  0.10566000000E+00 0.  1.
        994   -1    0    0    0    0 -0.00000000000E+00 -0.00000000000E+00  0.11368683772E-12  0.17120000000E+03  0.17120000000E+03 0.  0.
         13    1    1    2    0    0  0.85345356480E+01 -0.54692547260E+01  0.18648374020E+02  0.21225552139E+02  0.10566000000E+00 0.  1.
        994    1    1    2    0    0 -0.19254403967E+02  0.14066522639E+01  0.37820770281E+01  0.17232659356E+03  0.17120000000E+03 0.  0.
        998    1    1    2    0    0  0.10719868319E+02  0.40626024622E+01  0.14775695452E+04  0.14776478543E+04  0.10000000000E+02 0.  1.
</event>
<event>
 5    1  0.1360042E-008  0.3843224E+03  0.7957747E-01  0.3432551E+00
         13   -1    0    0    0    0  0.00000000000E+00  0.00000000000E+00  0.14999999963E+04  0.15000000000E+04  0.10566000000E+00 0.  1.
        994   -1    0    0    0    0 -0.00000000000E+00 -0.00000000000E+00  0.11368683772E-12  0.17120000000E+03  0.17120000000E+03 0.  0.
         13    1    1    2    0    0  0.30798276314E+01 -0.21771303687E+02  0.12282469788E+03  0.12477737205E+03  0.10566000000E+00 0.  1.
        994    1    1    2    0    0 -0.71218022057E+01  0.12548600247E+02  0.26533648621E+01  0.17182743605E+03  0.17120000000E+03 0.  0.
        998    1    1    2    0    0  0.40419745743E+01  0.92227034400E+01  0.13745219335E+04  0.13745951919E+04  0.10000000000E+02 0.  1.
</event>
<event>
 5    1  0.1360042E-008  0.3834068E+03  0.7957747E-01  0.3436458E+00
         13   -1    0    0    0    0  0.00000000000E+00  0.00000000000E+00  0.14999999963E+04  0.15000000000E+04  0.10566000000E+00 0.  1.
        994   -1    0    0    0    0 -0.00000000000E+00 -0.00000000000E+00  0.11368683772E-12  0.17120000000E+03  0.17120000000E+03 0.  0.
         13    1    1    2    0    0 -0.15439913470E+01 -0.21351707691E+02  0.89011316240E+02  0.91549467030E+02  0.10566000000E+00 0.  1.
        994    1    1    2    0    0 -0.10861343017E+01  0.22397219454E+02  0.40871575370E+01  0.17271062499E+03  0.17120000000E+03 0.  0.
        998    1    1    2    0    0  0.26301256487E+01 -0.10455117628E+01  0.14069015225E+04  0.14069399080E+04  0.10000000000E+02 0.  1.
</event>
<event>
 5    1  0.1360042E-008  0.3829850E+03  0.7957747E-01  0.3438263E+00
         13   -1    0    0    0    0  0.00000000000E+00  0.00000000000E+00  0.14999999963E+04  0.15000000000E+04  0.10566000000E+00 0. -1.
        994   -1    0    0    0    0 -0.00000000000E+00 -0.00000000000E+00  0.11368683772E-12  0.17120000000E+03  0.17120000000E+03 0.  0.
         13    1    1    2    0    0  0.18035735205E+02 -0.12927076179E+02  0.94504065563E+02  0.97074335511E+02  0.10566000000E+00 0. -1.
        994    1    1    2    0    0 -0.39756987726E+01  0.13011022618E+02  0.32468230430E+01  0.17177041291E+03  0.17120000000E+03 0.  0.
        998    1    1    2    0    0 -0.14060036433E+02 -0.83946438672E-01  0.14022491077E+04  0.14023552516E+04  0.10000000000E+02 0. -1.
</event>
<event>
 5    1  0.1360042E-008  0.3770612E+03  0.7957747E-01  0.3464055E+00
         13   -1    0    0    0    0  0.00000000000E+00  0.00000000000E+00  0.14999999963E+04  0.15000000000E+04  0.10566000000E+00 0. -1.
        994   -1    0    0    0    0 -0.00000000000E+00 -0.00000000000E+00  0.11368683772E-12  0.17120000000E+03  0.17120000000E+03 0.  0.
         13    1    1    2    0    0  0.25025272628E+02 -0.33662322191E+02  0.18583165480E+03  0.19050677493E+03  0.10566000000E+00 0. -1.
        994    1    1    2    0    0 -0.22381865934E+01 -0.72671110098E+01  0.58192390348E+01  0.17146755939E+03  0.17120000000E+03 0.  0.
        998    1    1    2    0    0 -0.22787086035E+02  0.40929433201E+02  0.13083491024E+04  0.13092256657E+04  0.10000000000E+02 0. -1.
</event>
<event>
 5    1  0.1360042E-008  0.3794168E+03  0.7957747E-01  0.3453702E+00
         13   -1    0    0    0    0  0.00000000000E+00  0.00000000000E+00  0.14999999963E+04  0.15000000000E+04  0.10566000000E+00 0.  1.
        994   -1    0    0    0    0 -0.00000000000E+00 -0.00000000000E+00  0.11368683772E-12  0.17120000000E+03  0.17120000000E+03 0.  0.
         13    1    1    2    0    0 -0.18356238671E+02  0.33369514816E+02  0.19039038784E+03  0.19416226967E+03  0.10566000000E+00 0.  1.
        994    1    1    2    0    0  0.12363416546E+02  0.66725472414E+01  0.50892005168E+01  0.17185085661E+03  0.17120000000E+03 0.  0.
        998    1    1    2    0    0  0.59928221249E+01 -0.40042062058E+02  0.13045204079E+04  0.13051868737E+04  0.10000000000E+02 0.  1.
</event>
<event>
 5    1  0.1360042E-008  0.3836075E+03  0.7957747E-01  0.3435599E+00
         13   -1    0    0    0    0  0.00000000000E+00  0.00000000000E+00  0.14999999963E+04  0.15000000000E+04  0.10566000000E+00 0. -1.
        994   -1    0    0    0    0 -0.00000000000E+00 -0.00000000000E+00  0.11368683772E-12  0.17120000000E+03  0.17120000000E+03 0.  0.
         13    1    1    2    0    0 -0.51198130806E+01  0.18429415297E+02  0.84263064492E+02  0.86406776562E+02  0.10566000000E+00 0. -1.
        994    1    1    2    0    0  0.42794491231E+01  0.10733644431E+01  0.23873651494E+01  0.17127348104E+03  0.17120000000E+03 0.  0.
        998    1    1    2    0    0  0.84036395755E+00 -0.19502779740E+02  0.14133495666E+04  0.14135197424E+04  0.10000000000E+02 0. -1.
</event>
<event>
 5    1  0.1360042E-008  0.3781436E+03  0.7957747E-01  0.3459282E+00
         13   -1    0    0    0    0  0.00000000000E+00  0.00000000000E+00  0.14999999963E+04  0.15000000000E+04  0.10566000000E+00 0.  1.
        994   -1    0    0    0    0 -0.00000000000E+00 -0.00000000000E+00  0.11368683772E-12  0.17120000000E+03  0.17120000000E+03 0.  0.
         13    1    1    2    0    0  0.14999492106E+02 -0.35597581337E+01  0.21558117828E+02  0.26503212064E+02  0.10566000000E+00 0.  1.
        994    1    1    2    0    0 -0.40034730318E+01  0.84551404516E+01  0.53676138438E+01  0.17153940794E+03  0.17120000000E+03 0.  0.
        998    1    1    2    0    0 -0.10996019074E+02 -0.48953823178E+01  0.14730742646E+04  0.14731573800E+04  0.10000000000E+02 0.  1.
</event>
<event>
 5    1  0.1360042E-008  0.3803520E+03  0.7957747E-01  0.3449627E+00
         13   -1    0    0    0    0  0.00000000000E+00  0.00000000000E+00  0.14999999963E+04  0.15000000000E+04  0.10566000000E+00 0. -1.
        994   -1    0    0    0    0 -0.00000000000E+00 -0.00000000000E+00  0.11368683772E-12  0.17120000000E+03  0.17120000000E+03 0.  0.
         13    1    1    2    0    0  0.19433141207E+01 -0.15116549257E+02  0.28651498566E+02  0.32453136448E+02  0.10566000000E+00 0. -1.
        994    1    1    2    0    0  0.69159291957E+01  0.13660614380E+01  0.41215278957E+01  0.17139464167E+03  0.17120000000E+03 0.  0.
        998    1    1    2    0    0 -0.88592433164E+01  0.13750487819E+02  0.14672269698E+04  0.14673522219E+04  0.10000000000E+02 0. -1.
</event>
<event>
 5    1  0.1360042E-008  0.3823371E+03  0.7957747E-01  0.3441045E+00
         13   -1    0    0    0    0  0.00000000000E+00  0.00000000000E+00  0.14999999963E+04  0.15000000000E+04  0.10566000000E+00 0. -1.
        994   -1    0    0    0    0 -0.00000000000E+00 -0.00000000000E+00  0.11368683772E-12  0.17120000000E+03  0.17120000000E+03 0.  0.
         13    1    1    2    0    0  0.11840029474E+02  0.33739742879E+01  0.24122102210E+02  0.27082410888E+02  0.10566000000E+00 0. -1.
        994    1    1    2    0    0 -0.68238130712E+01 -0.25366778967E+02  0.52504275078E+01  0.17328313504E+03  0.17120000000E+03 0.  0.
        998    1    1    2    0    0 -0.50162164026E+01  0.21992804679E+02  0.14706274666E+04  0.14708344541E+04  0.10000000000E+02 0. -1.
</event>
<event>
 5    1  0.1360042E-008  0.3816962E+03  0.7957747E-01  0.3443806E+00
         13   -1    0    0    0    0  0.00000000000E+00  0.00000000000E+00  0.14999999963E+04  0.15000000000E+04  0.10566000000E+00 0. -1.
        994   -1    0    0    0    0 -0.00000000000E+00 -0.00000000000E+00  0.11368683772E-12  0.17120000000E+03  0.17120000000E+03 0.  0.
         13    1    1    2    0    0 -0.60844612237E+01 -0.17232172692E+02  0.52430817444E+02  0.55524501132E+02  0.10566000000E+00 0. -1.
        994    1    1    2    0    0 -0.20574747980E+02  0.71631233691E+01  0.48587540138E+01  0.17264900255E+03  0.17120000000E+03 0.  0.
        998    1    1    2    0    0  0.26659209204E+02  0.10069049323E+02  0.14427104248E+04  0.14430264963E+04  0.10000000000E+02 0. -1.
</event>
<event>
 5    1  0.1360042E-008  0.3773600E+03  0.7957747E-01  0.3462735E+00
         13   -1    0    0    0    0  0.00000000000E+00  0.00000000000E+00  0.14999999963E+04  0.15000000000E+04  0.10566000000E+00 0. -1.
        994   -1    0    0    0    0 -0.00000000000E+00 -0.00000000000E+00  0.11368683772E-12  0.17120000000E+03  0.17120000000E+03 0.  0.
         13    1    1    2    0    0 -0.99040039963E+01  0.14003112812E+02  0.24959873903E+02  0.30285028197E+02  0.10566000000E+00 0. -1.
        994    1    1    2    0    0  0.88768183352E+01 -0.15384895476E+01  0.57455423522E+01  0.17153313415E+03  0.17120000000E+03 0.  0.
        998    1    1    2    0    0  0.10271856612E+01 -0.12464623265E+02  0.14692945800E+04  0.14693818377E+04  0.10000000000E+02 0. -1.
</event>
<event>
 5    1  0.1360042E-008  0.3848513E+03  0.7957747E-01  0.3430303E+00
         13   -1    0    0    0    0  0.00000000000E+00  0.00000000000E+00  0.14999999963E+04  0.15000000000E+04  0.10566000000E+00 0.  1.
        994   -1    0    0    0    0 -0.00000000000E+00 -0.00000000000E+00  0.11368683772E-12  0.17120000000E+03  0.17120000000E+03 0.  0.
         13    1    1    2    0    0  0.13763427125E+02 -0.86121735462E+01  0.75143565706E+02  0.76877617618E+02  0.10566000000E+00 0.  1.
        994    1    1    2    0    0 -0.55452046618E+01  0.19590326283E+02  0.30690708903E+01  0.17243372459E+03  0.17120000000E+03 0.  0.
        998    1    1    2    0    0 -0.82182224636E+01 -0.10978152736E+02  0.14217873597E+04  0.14218886578E+04  0.10000000000E+02 0.  1.
</event>
<event>
 5    1  0.1360042E-008  0.3772159E+03  0.7957747E-01  0.3463372E+00
         13   -1    0    0    0    0  0.00000000000E+00  0.00000000000E+00  0.14999999963E+04  0.15000000000E+04  0.10566000000E+00 0. -1.
        994   -1    0    0    0    0 -0.00000000000E+00 -0.00000000000E+00  0.11368683772E-12  0.17120000000E+03  0.17120000000E+03 0.  0.
         13    1    1    2    0    0  0.38495119267E+02 -0.51549435348E+01  0.13919075885E+03  0.14450787578E+03  0.10566000000E+00 0. -1.
        994    1    1    2    0    0 -0.16801014981E+02 -0.39678316544E+01  0.65513515549E+01  0.17219285119E+03  0.17120000000E+03 0.  0.
        998    1    1    2    0    0 -0.21694104286E+02  0.91227751892E+01  0.13542578859E+04  0.13544992730E+04  0.10000000000E+02 0. -1.
</event>
<event>
 5    1  0.1360042E-008  0.3835263E+03  0.7957747E-01  0.3435946E+00
         13   -1    0    0    0    0  0.00000000000E+00  0.00000000000E+00  0.14999999963E+04  0.15000000000E+04  0.10566000000E+00 0. -1.
        994   -1    0    0    0    0 -0.00000000000E+00 -0.00000000000E+00  0.11368683772E-12  0.17120000000E+03  0.17120000000E+03 0.  0.
         13    1    1    2    0    0 -0.15407484762E+01  0.16622453458E+02  0.61331383673E+02  0.63562800852E+02  0.10566000000E+00 0. -1.
        994    1    1    2    0    0 -0.36335801065E+01 -0.17320263505E+01  0.24171028323E+01  0.17126437226E+03  0.17120000000E+03 0.  0.
        998    1    1    2    0    0  0.51743285828E+01 -0.14890427107E+02  0.14362515098E+04  0.14363728269E+04  0.10000000000E+02 0. -1.
</event>
<event>
 5    1  0.1360042E-008  0.3854526E+03  0.7957747E-01  0.3427755E+00
         13   -1    0    0    0    0  0.00000000000E+00  0.00000000000E+00  0.14999999963E+04  0.15000000000E+04  0.10566000000E+00 0. -1.
        994   -1    0    0    0    0 -0.00000000000E+00 -0.00000000000E+00  0.11368683772E-12  0.17120000000E+03  0.17120000000E+03 0.  0.
         13    1    1    2    0    0 -0.11950817418E+02  0.61935013036E+01  0.65135688323E+02  0.66512033142E+02  0.10566000000E+00 0. -1.
        994    1    1    2    0    0  0.71633375898E+01 -0.36321010205E+01  0.16174315538E+01  0.17139592075E+03  0.17120000000E+03 0.  0.
        998    1    1    2    0    0  0.47874798278E+01 -0.25614002831E+01  0.14332468764E+04  0.14332920461E+04  0.10000000000E+02 0. -1.
</event>
<event>
 5    1  0.1360042E-008  0.3824346E+03  0.7957747E-01  0.3440626E+00
         13   -1    0    0    0    0  0.00000000000E+00  0.00000000000E+00  0.14999999963E+04  0.15000000000E+04  0.10566000000E+00 0.  1.
        994   -1    0    0    0    0 -0.00000000000E+00 -0.00000000000E+00  0.11368683772E-12  0.17120000000E+03  0.17120000000E+03 0.  0.
         13    1    1    2    0    0  0.18374511619E+02 -0.71321450362E-01  0.58362258946E+02  0.61186536078E+02  0.10566000000E+00 0.  1.
        994    1    1    2    0    0 -0.81475121065E+01  0.41493494865E+02  0.88617239429E+01  0.17656744383E+03  0.17120000000E+03 0.  0.
        998    1    1    2    0    0 -0.10226999512E+02 -0.41422173415E+02  0.14327760134E+04  0.14334460201E+04  0.10000000000E+02 0.  1.
</event>
<event>
 5    1  0.1360042E-008  0.3848361E+03  0.7957747E-01  0.3430368E+00
         13   -1    0    0    0    0  0.00000000000E+00  0.00000000000E+00  0.14999999963E+04  0.15000000000E+04  0.10566000000E+00 0. -1.
        994   -1    0    0    0    0 -0.00000000000E+00 -0.00000000000E+00  0.11368683772E-12  0.17120000000E+03  0.17120000000E+03 0.  0.
         13    1    1    2    0    0 -0.24176164758E+01 -0.19128593866E+02  0.11017853403E+03  0.11185288775E+03  0.10566000000E+00 0. -1.
        994    1    1    2    0    0  0.83527268131E+01  0.94658348750E+01  0.22361009159E+01  0.17167938205E+03  0.17120000000E+03 0.  0.
        998    1    1    2    0    0 -0.59351103373E+01  0.96627589912E+01  0.13875853613E+04  0.13876677302E+04  0.10000000000E+02 0. -1.
</event>
<event>
 5    1  0.1360042E-008  0.3856025E+03  0.7957747E-01  0.3427121E+00
         13   -1    0    0    0    0  0.00000000000E+00  0.00000000000E+00  0.14999999963E+04  0.15000000000E+04  0.10566000000E+00 0. -1.
        994   -1    0    0    0    0 -0.00000000000E+00 -0.00000000000E+00  0.11368683772E-12  0.17120000000E+03  0.17120000000E+03 0.  0.
         13    1    1    2    0    0 -0.64842680271E+01 -0.12852360871E+02  0.78071013516E+02  0.79387172939E+02  0.10566000000E+00 0. -1.
        994    1    1    2    0    0  0.89412115373E+01  0.65551258076E+01  0.17348237996E+01  0.17156737613E+03  0.17120000000E+03 0.  0.
        998    1    1    2    0    0 -0.24569435102E+01  0.62972350632E+01  0.14201941590E+04  0.14202454509E+04  0.10000000000E+02 0. -1.
</event>
<event>
 5    1  0.1360042E-008  0.3774478E+03  0.7957747E-01  0.3462347E+00
         13   -1    0    0    0    0  0.00000000000E+00  0.00000000000E+00  0.14999999963E+04  0.15000000000E+04  0.10566000000E+00 0.  1.
        994   -1    0    0    0    0 -0.00000000000E+00 -0.00000000000E+00  0.11368683772E-12  0.17120000000E+03  0.17120000000E+03 0.  0.
         13    1    1    2    0    0  0.36195188669E+02 -0.22352215756E+02  0.16043147476E+03  0.16597584912E+03  0.10566000000E+00 0.  1.
        994    1    1    2    0    0 -0.29085769516E+02  0.93695589685E+01  0.85815942180E+01  0.17411735807E+03  0.17120000000E+03 0.  0.
        998    1    1    2    0    0 -0.71094191528E+01  0.12982656788E+02  0.13309869273E+04  0.13311067928E+04  0.10000000000E+02 0.  1.
</event>
<event>
 5    1  0.1360042E-008  0.3805119E+03  0.7957747E-01  0.3448933E+00
         13   -1    0    0    0    0  0.00000000000E+00  0.00000000000E+00  0.14999999963E+04  0.15000000000E+04  0.10566000000E+00 0.  1.
        994   -1    0    0    0    0 -0.00000000000E+00 -0.00000000000E+00  0.11368683772E-12  0.17120000000E+03  0.17120000000E+03 0.  0.
         13    1    1    2    0    0  0.33861537499E+02  0.28436670283E+02  0.17481454682E+03  0.18032022871E+03  0.10566000000E+00 0.  1.
        994    1    1    2    0    0 -0.41172251588E+02 -0.76562479811E+02  0.29520732226E+02  0.19426240307E+03  0.17120000000E+03 0.  0.
        998    1    1    2    0    0  0.73107140890E+01  0.48125809527E+02  0.12956647172E+04  0.12966173682E+04  0.10000000000E+02 0.  1.
</event>
<event>
 5    1  0.1360042E-008  0.3833509E+03  0.7957747E-01  0.3436696E+00
         13   -1    0    0    0    0  0.00000000000E+00  0.00000000000E+00  0.14999999963E+04  0.15000000000E+04  0.10566000000E+00 0. -1.
        994   -1    0    0    0    0 -0.00000000000E+00 -0.00000000000E+00  0.11368683772E-12  0.17120000000E+03  0.17120000000E+03 0.  0.
         13    1    1    2    0    0  0.16828359218E+02  0.17409399974E+02  0.11034670235E+03  0.11297206188E+03  0.10566000000E+00 0. -1.
        994    1    1    2    0    0 -0.15550821735E+02 -0.21132785716E+02  0.47305538483E+01  0.17326350114E+03  0.17120000000E+03 0.  0.
        998    1    1    2    0    0 -0.12775374832E+01  0.37233857412E+01  0.13849227401E+04  0.13849644370E+04  0.10000000000E+02 0.  0.
</event>
<event>
 5    1  0.1360042E-008  0.3777248E+03  0.7957747E-01  0.3461125E+00
         13   -1    0    0    0    0  0.00000000000E+00  0.00000000000E+00  0.14999999963E+04  0.15000000000E+04  0.10566000000E+00 0.  1.
        994   -1    0    0    0    0 -0.00000000000E+00 -0.00000000000E+00  0.11368683772E-12  0.17120000000E+03  0.17120000000E+03 0.  0.
         13    1    1    2    0    0 -0.13729276712E+02 -0.27390070522E+02  0.95014863512E+02  0.99832582129E+02  0.10566000000E+00 0.  1.
        994    1    1    2    0    0 -0.11320840986E+02  0.49696080557E+01  0.58011077913E+01  0.17174385374E+03  0.17120000000E+03 0.  0.
        998    1    1    2    0    0  0.25050117697E+02  0.22420462467E+02  0.13991840250E+04  0.13996235641E+04  0.10000000000E+02 0.  1.
</event>
<event>
 5    1  0.1360042E-008  0.3812533E+03  0.7957747E-01  0.3445720E+00
         13   -1    0    0    0    0  0.00000000000E+00  0.00000000000E+00  0.14999999963E+04  0.15000000000E+04  0.10566000000E+00 0.  1.
        994   -1    0    0    0    0 -0.00000000000E+00 -0.00000000000E+00  0.11368683772E-12  0.17120000000E+03  0.17120000000E+03 0.  0.
         13    1    1    2    0    0  0.23134121738E+01  0.26067448778E+02  0.88999517877E+02  0.92767392483E+02  0.10566000000E+00 0.  1.
        994    1    1    2    0    0 -0.99965647234E+01 -0.31253540947E+02  0.70946532775E+01  0.17446056641E+03  0.17120000000E+03 0.  0.
        998    1    1    2    0    0  0.76831525497E+01  0.51860921698E+01  0.14039058251E+04  0.14039720411E+04  0.10000000000E+02 0.  1.
</event>
<event>
 5    1  0.1360042E-008  0.3823295E+03  0.7957747E-01  0.3441078E+00
         13   -1    0    0    0    0  0.00000000000E+00  0.00000000000E+00  0.14999999963E+04  0.15000000000E+04  0.10566000000E+00 0.  1.
        994   -1    0    0    0    0 -0.00000000000E+00 -0.00000000000E+00  0.11368683772E-12  0.17120000000E+03  0.17120000000E+03 0.  0.
         13    1    1    2    0    0  0.90720430421E+01 -0.10763143406E+02  0.33798294586E+02  0.36612608510E+02  0.10566000000E+00 0.  1.
        994    1    1    2    0    0 -0.31009435566E+00 -0.29802773656E+01  0.29916054564E+01  0.17125235156E+03  0.17120000000E+03 0.  0.
        998    1    1    2    0    0 -0.87619486864E+01  0.13743420771E+02  0.14632100962E+04  0.14633350399E+04  0.10000000000E+02 0.  1.
</event>
<event>
 5    1  0.1360042E-008  0.3813545E+03  0.7957747E-01  0.3445282E+00
         13   -1    0    0    0    0  0.00000000000E+00  0.00000000000E+00  0.14999999963E+04  0.15000000000E+04  0.10566000000E+00 0. -1.
        994   -1    0    0    0    0 -0.00000000000E+00 -0.00000000000E+00  0.11368683772E-12  0.17120000000E+03  0.17120000000E+03 0.  0.
         13    1    1    2    0    0  0.13276186161E+01  0.26810674013E+02  0.98440566121E+02  0.10203495006E+03  0.10566000000E+00 0. -1.
        994    1    1    2    0    0 -0.21549020927E+01 -0.25025984247E+02  0.55535787791E+01  0.17312199666E+03  0.17120000000E+03 0.  0.
        998    1    1    2    0    0  0.82728347653E+00 -0.17846897661E+01  0.13960058514E+04  0.13960430533E+04  0.10000000000E+02 0. -1.
</event>
<event>
 5    1  0.1360042E-008  0.3830696E+03  0.7957747E-01  0.3437901E+00
         13   -1    0    0    0    0  0.00000000000E+00  0.00000000000E+00  0.14999999963E+04  0.15000000000E+04  0.10566000000E+00 0. -1.
        994   -1    0    0    0    0 -0.00000000000E+00 -0.00000000000E+00  0.11368683772E-12  0.17120000000E+03  0.17120000000E+03 0.  0.
         13    1    1    2    0    0 -0.86495014393E+00 -0.10203664686E+02  0.19406831478E+02  0.21943089659E+02  0.10566000000E+00 0. -1.
        994    1    1    2    0    0 -0.44955629777E+01  0.52408452121E+01  0.27493847083E+01  0.17136124317E+03  0.17120000000E+03 0.  0.
        998    1    1    2    0    0  0.53605131217E+01  0.49628194735E+01  0.14778437801E+04  0.14778956672E+04  0.10000000000E+02 0. -1.
</event>
<event>
 5    1  0.1360042E-008  0.3834804E+03  0.7957747E-01  0.3436143E+00
         13   -1    0    0    0    0  0.00000000000E+00  0.00000000000E+00  0.14999999963E+04  0.15000000000E+04  0.10566000000E+00 0. -1.
        994   -1    0    0    0    0 -0.00000000000E+00 -0.00000000000E+00  0.11368683772E-12  0.17120000000E+03  0.17120000000E+03 0.  0.
         13    1    1    2    0    0  0.15627764720E+02  0.68304891396E+01  0.59602553592E+02  0.61994823741E+02  0.10566000000E+00 0. -1.
        994    1    1    2    0    0 -0.91353261499E+01 -0.12913730588E+02  0.32138556111E+01  0.17195926113E+03  0.17120000000E+03 0.  0.
        998    1    1    2    0    0 -0.64924385698E+01  0.60832414487E+01  0.14371835871E+04  0.14372459151E+04  0.10000000000E+02 0. -1.
</event>
<event>
 5    1  0.1360042E-008  0.3781907E+03  0.7957747E-01  0.3459075E+00
         13   -1    0    0    0    0  0.00000000000E+00  0.00000000000E+00  0.14999999963E+04  0.15000000000E+04  0.10566000000E+00 0. -1.
        994   -1    0    0    0    0 -0.00000000000E+00 -0.00000000000E+00  0.11368683772E-12  0.17120000000E+03  0.17120000000E+03 0.  0.
         13    1    1    2    0    0  0.27698495171E+02 -0.74077142005E+01  0.19925964930E+02  0.34916129609E+02  0.10566000000E+00 0. -1.
        994    1    1    2    0    0 -0.32284583921E+02  0.26389672628E+01  0.19123112383E+02  0.17528374692E+03  0.17120000000E+03 0.  0.
        998    1    1    2    0    0  0.45860887497E+01  0.47687469377E+01  0.14609509190E+04  0.14610001235E+04  0.10000000000E+02 0. -1.
</event>
<event>
 5    1  0.1691707E-008  0.3861798E+03  0.7957747E-01  0.3424684E+00
         13   -1    0    0    0    0  0.00000000000E+00  0.00000000000E+00  0.14999999963E+04  0.15000000000E+04  0.10566000000E+00 0. -1.
        994   -1    0    0    0    0 -0.00000000000E+00 -0.00000000000E+00  0.11368683772E-12  0.17120000000E+03  0.17120000000E+03 0.  0.
         13    1    1    2    0    0  0.13905671316E+01 -0.10088743934E+02  0.50340355871E+02  0.51360286451E+02  0.10566000000E+00 0. -1.
        994    1    1    2    0    0 -0.21920874983E+01  0.66453741245E+01  0.12059536489E+01  0.17134719306E+03  0.17120000000E+03 0.  0.
        998    1    1    2    0    0  0.80152036675E+00  0.34433698093E+01  0.14484536868E+04  0.14484925205E+04  0.10000000000E+02 0. -1.
</event>
<event>
 5    1  0.1656129E-008  0.3854553E+03  0.7957747E-01  0.3427744E+00
         13   -1    0    0    0    0  0.00000000000E+00  0.00000000000E+00  0.14999999963E+04  0.15000000000E+04  0.10566000000E+00 0. -1.
        994   -1    0    0    0    0 -0.00000000000E+00 -0.00000000000E+00  0.11368683772E-12  0.17120000000E+03  0.17120000000E+03 0.  0.
         13    1    1    2    0    0  0.88261802888E+01  0.11950532409E+02  0.84502202046E+02  0.85798309995E+02  0.10566000000E+00 0. -1.
        994    1    1    2    0    0  0.25715304964E+01 -0.32336883942E+01  0.14603340987E+01  0.17125607167E+03  0.17120000000E+03 0.  0.
        998    1    1    2    0    0 -0.11397710785E+02 -0.87168440152E+01  0.14140374601E+04  0.14141456183E+04  0.10000000000E+02 0. -1.
</event>
<event>
 5    1  0.1360042E-008  0.3836979E+03  0.7957747E-01  0.3435213E+00
         13   -1    0    0    0    0  0.00000000000E+00  0.00000000000E+00  0.14999999963E+04  0.15000000000E+04  0.10566000000E+00 0. -1.
        994   -1    0    0    0    0 -0.00000000000E+00 -0.00000000000E+00  0.11368683772E-12  0.17120000000E+03  0.17120000000E+03 0.  0.
         13    1    1    2    0    0 -0.15403349492E+02 -0.15830051674E+01  0.51677845879E+02  0.53947937863E+02  0.10566000000E+00 0. -1.
        994    1    1    2    0    0  0.11548949970E+02  0.25120965211E+01  0.27394622155E+01  0.17162934926E+03  0.17120000000E+03 0.  0.
        998    1    1    2    0    0  0.38543995222E+01 -0.92909135367E+00  0.14455826882E+04  0.14456227129E+04  0.10000000000E+02 0. -1.
</event>
<event>
 5    1  0.1360042E-008  0.3748673E+03  0.7957747E-01  0.3473817E+00
         13   -1    0    0    0    0  0.00000000000E+00  0.00000000000E+00  0.14999999963E+04  0.15000000000E+04  0.10566000000E+00 0.  1.
        994   -1    0    0    0    0 -0.00000000000E+00 -0.00000000000E+00  0.11368683772E-12  0.17120000000E+03  0.17120000000E+03 0.  0.
         13    1    1    2    0    0  0.52502781999E+02 -0.53354761205E+01  0.17110951212E+03  0.17906279827E+03  0.10566000000E+00 0.  1.
        994    1    1    2    0    0 -0.64630313048E+02 -0.57649080115E+01  0.21202472220E+02  0.18430761340E+03  0.17120000000E+03 0.  0.
        998    1    1    2    0    0  0.12127531049E+02  0.11100384132E+02  0.13076880119E+04  0.13078295883E+04  0.10000000000E+02 0.  1.
</event>
<event>
 5    1  0.1360042E-008  0.3844695E+03  0.7957747E-01  0.3431925E+00
         13   -1    0    0    0    0  0.00000000000E+00  0.00000000000E+00  0.14999999963E+04  0.15000000000E+04  0.10566000000E+00 0.  1.
        994   -1    0    0    0    0 -0.00000000000E+00 -0.00000000000E+00  0.11368683772E-12  0.17120000000E+03  0.17120000000E+03 0.  0.
         13    1    1    2    0    0 -0.10838571442E+02 -0.62956635106E+01  0.43693806182E+02  0.45456241295E+02  0.10566000000E+00 0.  1.
        994    1    1    2    0    0 -0.46911604206E+01  0.61014777515E+00  0.19674820938E+01  0.17127664830E+03  0.17120000000E+03 0.  0.
        998    1    1    2    0    0  0.15529731863E+02  0.56855157354E+01  0.14543387080E+04  0.14544671104E+04  0.10000000000E+02 0.  1.
</event>
<event>
 5    1  0.1360042E-008  0.3639557E+03  0.7957747E-01  0.3524139E+00
         13   -1    0    0    0    0  0.00000000000E+00  0.00000000000E+00  0.14999999963E+04  0.15000000000E+04  0.10566000000E+00 0. -1.
        994   -1    0    0    0    0 -0.00000000000E+00 -0.00000000000E+00  0.11368683772E-12  0.17120000000E+03  0.17120000000E+03 0.  0.
         13    1    1    2    0    0 -0.15339203091E+03 -0.14321086702E+03  0.11456437160E+04  0.11647051140E+04  0.10566000000E+00 0. -1.
        994    1    1    2    0    0  0.14643815288E+03  0.12940376903E+03  0.14737102162E+03  0.29869236025E+03  0.17120000000E+03 0.  0.
        998    1    1    2    0    0  0.69538780284E+01  0.13807097994E+02  0.20698525869E+03  0.20780252571E+03  0.10000000000E+02 0.  0.
</event>
<event>
 5    1  0.1360042E-008  0.3780549E+03  0.7957747E-01  0.3459672E+00
         13   -1    0    0    0    0  0.00000000000E+00  0.00000000000E+00  0.14999999963E+04  0.15000000000E+04  0.10566000000E+00 0. -1.
        994   -1    0    0    0    0 -0.00000000000E+00 -0.00000000000E+00  0.11368683772E-12  0.17120000000E+03  0.17120000000E+03 0.  0.
         13    1    1    2    0    0  0.17442207007E+03 -0.74427301393E+02  0.62327477342E+03  0.65148594464E+03  0.10566000000E+00 0. -1.
        994    1    1    2    0    0 -0.24246928913E+03  0.78524487497E+02  0.26931461920E+03  0.40840819706E+03  0.17120000000E+03 0.  0.
        998    1    1    2    0    0  0.68047219062E+02 -0.40971861032E+01  0.60741060366E+03  0.61130585830E+03  0.10000000000E+02 0. -1.
</event>
<event>
 5    1  0.1360042E-008  0.3791263E+03  0.7957747E-01  0.3454971E+00
         13   -1    0    0    0    0  0.00000000000E+00  0.00000000000E+00  0.14999999963E+04  0.15000000000E+04  0.10566000000E+00 0. -1.
        994   -1    0    0    0    0 -0.00000000000E+00 -0.00000000000E+00  0.11368683772E-12  0.17120000000E+03  0.17120000000E+03 0.  0.
         13    1    1    2    0    0 -0.48486744964E+02 -0.10612918515E+02  0.22309822746E+03  0.22855290139E+03  0.10566000000E+00 0. -1.
        994    1    1    2    0    0  0.51105984932E+02  0.16528331614E+02  0.14308573820E+02  0.17999772978E+03  0.17120000000E+03 0.  0.
        998    1    1    2    0    0 -0.26192399678E+01 -0.59154130991E+01  0.12625931950E+04  0.12626493688E+04  0.10000000000E+02 0.  1.
</event>
<event>
 5    1  0.1360042E-008  0.3841996E+03  0.7957747E-01  0.3433074E+00
         13   -1    0    0    0    0  0.00000000000E+00  0.00000000000E+00  0.14999999963E+04  0.15000000000E+04  0.10566000000E+00 0.  1.
        994   -1    0    0    0    0 -0.00000000000E+00 -0.00000000000E+00  0.11368683772E-12  0.17120000000E+03  0.17120000000E+03 0.  0.
         13    1    1    2    0    0  0.22010678624E+02 -0.14271392136E+02  0.14596347923E+03  0.14830202642E+03  0.10566000000E+00 0.  1.
        994    1    1    2    0    0 -0.28897022497E+02  0.16933873289E+02  0.57356101637E+01  0.17453976967E+03  0.17120000000E+03 0.  0.
        998    1    1    2    0    0  0.68863438735E+01 -0.26624811531E+01  0.13483009069E+04  0.13483582039E+04  0.10000000000E+02 0.  1.
</event>
<event>
 5    1  0.1360042E-008  0.3825765E+03  0.7957747E-01  0.3440016E+00
         13   -1    0    0    0    0  0.00000000000E+00  0.00000000000E+00  0.14999999963E+04  0.15000000000E+04  0.10566000000E+00 0.  1.
        994   -1    0    0    0    0 -0.00000000000E+00 -0.00000000000E+00  0.11368683772E-12  0.17120000000E+03  0.17120000000E+03 0.  0.
         13    1    1    2    0    0  0.13911740702E+00 -0.11408838465E+02  0.21568418581E+02  0.24400590011E+02  0.10566000000E+00 0.  1.
        994    1    1    2    0    0  0.22129159091E+01  0.12363848676E+02  0.33612883713E+01  0.17169304008E+03  0.17120000000E+03 0.  0.
        998    1    1    2    0    0 -0.23520333162E+01 -0.95501021152E+00  0.14750702893E+04  0.14751063699E+04  0.10000000000E+02 0.  1.
</event>
<event>
 5    1  0.1360042E-008  0.3844649E+03  0.7957747E-01  0.3431945E+00
         13   -1    0    0    0    0  0.00000000000E+00  0.00000000000E+00  0.14999999963E+04  0.15000000000E+04  0.10566000000E+00 0.  1.
        994   -1    0    0    0    0 -0.00000000000E+00 -0.00000000000E+00  0.11368683772E-12  0.17120000000E+03  0.17120000000E+03 0.  0.
         13    1    1    2    0    0 -0.18768618765E+02 -0.11999065109E+02  0.13199485339E+03  0.13386146234E+03  0.10566000000E+00 0.  1.
        994    1    1    2    0    0  0.77800797935E+01  0.11121812810E+02  0.25031519292E+01  0.17175543698E+03  0.17120000000E+03 0.  0.
        998    1    1    2    0    0  0.10988538971E+02  0.87725229869E+00  0.13655019910E+04  0.13655831007E+04  0.10000000000E+02 0.  1.
</event>
<event>
 5    1  0.1360042E-008  0.4024642E+03  0.7957747E-01  0.3358821E+00
         13   -1    0    0    0    0  0.00000000000E+00  0.00000000000E+00  0.14999999963E+04  0.15000000000E+04  0.10566000000E+00 0. -1.
        994   -1    0    0    0    0 -0.00000000000E+00 -0.00000000000E+00  0.11368683772E-12  0.17120000000E+03  0.17120000000E+03 0.  0.
         13    1    1    2    0    0 -0.48730748515E+02  0.64315781028E+02  0.95047305526E+02  0.12468041944E+03  0.10566000000E+00 0. -1.
        994    1    1    2    0    0  0.49774618426E+02 -0.67237202082E+02  0.57509224482E+02  0.19903543625E+03  0.17120000000E+03 0.  0.
        998    1    1    2    0    0 -0.10438699111E+01  0.29214210540E+01  0.13474434663E+04  0.13474841443E+04  0.10000000000E+02 0. -1.
</event>
<event>
 5    1  0.1360042E-008  0.3745957E+03  0.7957747E-01  0.3475033E+00
         13   -1    0    0    0    0  0.00000000000E+00  0.00000000000E+00  0.14999999963E+04  0.15000000000E+04  0.10566000000E+00 0.  1.
        994   -1    0    0    0    0 -0.00000000000E+00 -0.00000000000E+00  0.11368683772E-12  0.17120000000E+03  0.17120000000E+03 0.  0.
         13    1    1    2    0    0 -0.34028427163E+02  0.75029701271E+01  0.81097469153E+02  0.88266862881E+02  0.10566000000E+00 0.  1.
        994    1    1    2    0    0  0.33682763258E+02 -0.15269585932E+02  0.11556078762E+02  0.17552968909E+03  0.17120000000E+03 0.  0.
        998    1    1    2    0    0  0.34566390497E+00  0.77666158045E+01  0.14073464484E+04  0.14074034480E+04  0.10000000000E+02 0.  1.
</event>
<event>
 5    1  0.1360042E-008  0.3809660E+03  0.7957747E-01  0.3446963E+00
         13   -1    0    0    0    0  0.00000000000E+00  0.00000000000E+00  0.14999999963E+04  0.15000000000E+04  0.10566000000E+00 0. -1.
        994   -1    0    0    0    0 -0.00000000000E+00 -0.00000000000E+00  0.11368683772E-12  0.17120000000E+03  0.17120000000E+03 0.  0.
         13    1    1    2    0    0  0.26264005923E+01  0.16696215599E+02  0.38672664065E+02  0.42204830356E+02  0.10566000000E+00 0. -1.
        994    1    1    2    0    0  0.23612013447E+01 -0.53477602530E+01  0.37602191993E+01  0.17134104313E+03  0.17120000000E+03 0.  0.
        998    1    1    2    0    0 -0.49876019370E+01 -0.11348455346E+02  0.14575671130E+04  0.14576541265E+04  0.10000000000E+02 0. -1.
</event>
<event>
 5    1  0.1360042E-008  0.3863593E+03  0.7957747E-01  0.3423927E+00
         13   -1    0    0    0    0  0.00000000000E+00  0.00000000000E+00  0.14999999963E+04  0.15000000000E+04  0.10566000000E+00 0. -1.
        994   -1    0    0    0    0 -0.00000000000E+00 -0.00000000000E+00  0.11368683772E-12  0.17120000000E+03  0.17120000000E+03 0.  0.
         13    1    1    2    0    0  0.99175560780E+01 -0.17679407740E+01  0.52930168912E+02  0.53880399759E+02  0.10566000000E+00 0. -1.
        994    1    1    2    0    0 -0.94070545955E+01  0.18441475538E+01  0.12576845340E+01  0.17147278305E+03  0.17120000000E+03 0.  0.
        998    1    1    2    0    0 -0.51050148251E+00 -0.76206779859E-01  0.14458121428E+04  0.14458468172E+04  0.10000000000E+02 0.  0.
</event>
<event>
 5    1  0.1360042E-008  0.3760428E+03  0.7957747E-01  0.3468572E+00
         13   -1    0    0    0    0  0.00000000000E+00  0.00000000000E+00  0.14999999963E+04  0.15000000000E+04  0.10566000000E+00 0.  1.
        994   -1    0    0    0    0 -0.00000000000E+00 -0.00000000000E+00  0.11368683772E-12  0.17120000000E+03  0.17120000000E+03 0.  0.
         13    1    1    2    0    0 -0.26034840381E+02 -0.21631266753E+01  0.57307782758E+02  0.62981625569E+02  0.10566000000E+00 0.  1.
        994    1    1    2    0    0 -0.52671563850E+01  0.51270373944E+01  0.63272291745E+01  0.17147449746E+03  0.17120000000E+03 0.  0.
        998    1    1    2    0    0  0.31301996766E+02 -0.29639107191E+01  0.14363649843E+04  0.14367438770E+04  0.10000000000E+02 0.  1.
</event>
<event>
 5    1  0.1360042E-008  0.3826914E+03  0.7957747E-01  0.3439523E+00
         13   -1    0    0    0    0  0.00000000000E+00  0.00000000000E+00  0.14999999963E+04  0.15000000000E+04  0.10566000000E+00 0. -1.
        994   -1    0    0    0    0 -0.00000000000E+00 -0.00000000000E+00  0.11368683772E-12  0.17120000000E+03  0.17120000000E+03 0.  0.
         13    1    1    2    0    0  0.20812709206E+01  0.19412418433E+02  0.67133097892E+02  0.69914502606E+02  0.10566000000E+00 0. -1.
        994    1    1    2    0    0  0.67395329371E+01 -0.15036342419E+02  0.36808291219E+01  0.17203052462E+03  0.17120000000E+03 0.  0.
        998    1    1    2    0    0 -0.88208038577E+01 -0.43760760133E+01  0.14291860693E+04  0.14292549728E+04  0.10000000000E+02 0. -1.
</event>
<event>
 5    1  0.1360042E-008  0.3831393E+03  0.7957747E-01  0.3437602E+00
         13   -1    0    0    0    0  0.00000000000E+00  0.00000000000E+00  0.14999999963E+04  0.15000000000E+04  0.10566000000E+00 0.  1.
        994   -1    0    0    0    0 -0.00000000000E+00 -0.00000000000E+00  0.11368683772E-12  0.17120000000E+03  0.17120000000E+03 0.  0.
         13    1    1    2    0    0  0.25283691338E+02 -0.15223779674E+02  0.15750129479E+03  0.16024262086E+03  0.10566000000E+00 0.  1.
        994    1    1    2    0    0 -0.30421421186E+02  0.20591740930E+01  0.56388687356E+01  0.17398545889E+03  0.17120000000E+03 0.  0.
        998    1    1    2    0    0  0.51377298485E+01  0.13164605581E+02  0.13368598327E+04  0.13369719202E+04  0.10000000000E+02 0.  1.
</event>
<event>
 5    1  0.1360042E-008  0.3846607E+03  0.7957747E-01  0.3431112E+00
         13   -1    0    0    0    0  0.00000000000E+00  0.00000000000E+00  0.14999999963E+04  0.15000000000E+04  0.10566000000E+00 0. -1.
        994   -1    0    0    0    0 -0.00000000000E+00 -0.00000000000E+00  0.11368683772E-12  0.17120000000E+03  0.17120000000E+03 0.  0.
         13    1    1    2    0    0  0.53704672019E+01  0.14241657151E+02  0.64499842776E+02  0.66271468963E+02  0.10566000000E+00 0. -1.
        994    1    1    2    0    0 -0.57469549727E+01 -0.78130428703E+01  0.21084518288E+01  0.17148748263E+03  0.17120000000E+03 0.  0.
        998    1    1    2    0    0  0.37648777080E+00 -0.64286142803E+01  0.14333917017E+04  0.14334410484E+04  0.10000000000E+02 0. -1.
</event>
<event>
 5    1  0.1360042E-008  0.3827465E+03  0.7957747E-01  0.3439286E+00
         13   -1    0    0    0    0  0.00000000000E+00  0.00000000000E+00  0.14999999963E+04  0.15000000000E+04  0.10566000000E+00 0. -1.
        994   -1    0    0    0    0 -0.00000000000E+00 -0.00000000000E+00  0.11368683772E-12  0.17120000000E+03  0.17120000000E+03 0.  0.
         13    1    1    2    0    0  0.88722975162E+01 -0.82563205782E+01  0.25332907648E+02  0.28082946189E+02  0.10566000000E+00 0. -1.
        994    1    1    2    0    0 -0.73086204904E+01  0.10500507580E+02  0.32955485690E+01  0.17170898996E+03  0.17120000000E+03 0.  0.
        998    1    1    2    0    0 -0.15636770258E+01 -0.22441870022E+01  0.14713715401E+04  0.14714080639E+04  0.10000000000E+02 0. -1.
</event>
<event>
 5    1  0.1360042E-008  0.3748172E+03  0.7957747E-01  0.3474041E+00
         13   -1    0    0    0    0  0.00000000000E+00  0.00000000000E+00  0.14999999963E+04  0.15000000000E+04  0.10566000000E+00 0. -1.
        994   -1    0    0    0    0 -0.00000000000E+00 -0.00000000000E+00  0.11368683772E-12  0.17120000000E+03  0.17120000000E+03 0.  0.
         13    1    1    2    0    0  0.17038466932E+02  0.38226660646E+02  0.14416887838E+03  0.15012082999E+03  0.10566000000E+00 0. -1.
        994    1    1    2    0    0  0.47798597003E+01 -0.21288843864E+01  0.68657564550E+01  0.17141749566E+03  0.17120000000E+03 0.  0.
        998    1    1    2    0    0 -0.21818326632E+02 -0.36097776259E+02  0.13489653614E+04  0.13496616743E+04  0.10000000000E+02 0. -1.
</event>
<event>
 5    1  0.1360042E-008  0.3802735E+03  0.7957747E-01  0.3449968E+00
         13   -1    0    0    0    0  0.00000000000E+00  0.00000000000E+00  0.14999999963E+04  0.15000000000E+04  0.10566000000E+00 0. -1.
        994   -1    0    0    0    0 -0.00000000000E+00 -0.00000000000E+00  0.11368683772E-12  0.17120000000E+03  0.17120000000E+03 0.  0.
         13    1    1    2    0    0  0.26524661534E+02 -0.13806827102E+02  0.14110279741E+03  0.14423659988E+03  0.10566000000E+00 0. -1.
        994    1    1    2    0    0  0.42164534761E+02  0.48870146902E+02  0.18037317501E+02  0.18385027624E+03  0.17120000000E+03 0.  0.
        998    1    1    2    0    0 -0.68689196295E+02 -0.35063319800E+02  0.13408598814E+04  0.13431131239E+04  0.10000000000E+02 0. -1.
</event>
<event>
 5    1  0.1360042E-008  0.3712489E+03  0.7957747E-01  0.3490171E+00
         13   -1    0    0    0    0  0.00000000000E+00  0.00000000000E+00  0.14999999963E+04  0.15000000000E+04  0.10566000000E+00 0.  1.
        994   -1    0    0    0    0 -0.00000000000E+00 -0.00000000000E+00  0.11368683772E-12  0.17120000000E+03  0.17120000000E+03 0.  0.
         13    1    1    2    0    0 -0.12509998733E+03  0.27206148025E+02  0.58395728987E+03  0.59782631999E+03  0.10566000000E+00 0.  1.
        994    1    1    2    0    0  0.11872086791E+03 -0.33757864090E+02  0.63045649475E+02  0.22026899869E+03  0.17120000000E+03 0.  0.
        998    1    1    2    0    0  0.63791194171E+01  0.65517160648E+01  0.85299705694E+03  0.85310468132E+03  0.10000000000E+02 0.  1.
</event>
<event>
 5    1  0.1360042E-008  0.3773486E+03  0.7957747E-01  0.3462785E+00
         13   -1    0    0    0    0  0.00000000000E+00  0.00000000000E+00  0.14999999963E+04  0.15000000000E+04  0.10566000000E+00 0.  1.
        994   -1    0    0    0    0 -0.00000000000E+00 -0.00000000000E+00  0.11368683772E-12  0.17120000000E+03  0.17120000000E+03 0.  0.
         13    1    1    2    0    0  0.20196015064E+02 -0.32362249028E+02  0.11478648341E+03  0.12095925812E+03  0.10566000000E+00 0.  1.
        994    1    1    2    0    0 -0.29411600121E+02  0.40679771917E+02  0.14023478581E+02  0.17895805100E+03  0.17120000000E+03 0.  0.
        998    1    1    2    0    0  0.92155850564E+01 -0.83175228898E+01  0.13711900343E+04  0.13712826909E+04  0.10000000000E+02 0.  1.
</event>
<event>
 5    1  0.1360042E-008  0.3835721E+03  0.7957747E-01  0.3435751E+00
         13   -1    0    0    0    0  0.00000000000E+00  0.00000000000E+00  0.14999999963E+04  0.15000000000E+04  0.10566000000E+00 0. -1.
        994   -1    0    0    0    0 -0.00000000000E+00 -0.00000000000E+00  0.11368683772E-12  0.17120000000E+03  0.17120000000E+03 0.  0.
         13    1    1    2    0    0 -0.14490360390E+02 -0.91791671982E+01  0.61053789841E+02  0.63417695264E+02  0.10566000000E+00 0. -1.
        994    1    1    2    0    0  0.12679582193E+02  0.79188353791E+01  0.30794536802E+01  0.17187903535E+03  0.17120000000E+03 0.  0.
        998    1    1    2    0    0  0.18107781969E+01  0.12603318191E+01  0.14358667528E+04  0.14359032694E+04  0.10000000000E+02 0. -1.
</event>
<event>
 5    1  0.1360042E-008  0.3749979E+03  0.7957747E-01  0.3473232E+00
         13   -1    0    0    0    0  0.00000000000E+00  0.00000000000E+00  0.14999999963E+04  0.15000000000E+04  0.10566000000E+00 0. -1.
        994   -1    0    0    0    0 -0.00000000000E+00 -0.00000000000E+00  0.11368683772E-12  0.17120000000E+03  0.17120000000E+03 0.  0.
         13    1    1    2    0    0 -0.95834874645E+01  0.75419714572E+01  0.80161861722E+01  0.14594347201E+02  0.10566000000E+00 0. -1.
        994    1    1    2    0    0  0.15047076336E+02 -0.24704858328E+01  0.74705706584E+01  0.17204001637E+03  0.17120000000E+03 0.  0.
        998    1    1    2    0    0 -0.54635888714E+01 -0.50714856245E+01  0.14845132394E+04  0.14845656364E+04  0.10000000000E+02 0. -1.
</event>
<event>
 5    1  0.1360042E-008  0.3979343E+03  0.7957747E-01  0.3376603E+00
         13   -1    0    0    0    0  0.00000000000E+00  0.00000000000E+00  0.14999999963E+04  0.15000000000E+04  0.10566000000E+00 0. -1.
        994   -1    0    0    0    0 -0.00000000000E+00 -0.00000000000E+00  0.11368683772E-12  0.17120000000E+03  0.17120000000E+03 0.  0.
         13    1    1    2    0    0  0.37092335996E+02 -0.31768485928E+02  0.33576662010E+02  0.59266191741E+02  0.10566000000E+00 0. -1.
        994    1    1    2    0    0 -0.36461074358E+02  0.42596535948E+02  0.38856717030E+02  0.18429096363E+03  0.17120000000E+03 0.  0.
        998    1    1    2    0    0 -0.63126163813E+00 -0.10828050020E+02  0.14275666172E+04  0.14276428446E+04  0.10000000000E+02 0. -1.
</event>
<event>
 5    1  0.1360042E-008  0.3804492E+03  0.7957747E-01  0.3449205E+00
         13   -1    0    0    0    0  0.00000000000E+00  0.00000000000E+00  0.14999999963E+04  0.15000000000E+04  0.10566000000E+00 0.  1.
        994   -1    0    0    0    0 -0.00000000000E+00 -0.00000000000E+00  0.11368683772E-12  0.17120000000E+03  0.17120000000E+03 0.  0.
         13    1    1    2    0    0 -0.10760111520E+02 -0.14514953315E+02  0.38331699054E+02  0.42376811891E+02  0.10566000000E+00 0.  1.
        994    1    1    2    0    0  0.60942745242E+02 -0.11832557601E+02  0.16880060857E+02  0.18288904853E+03  0.17120000000E+03 0.  0.
        998    1    1    2    0    0 -0.50182633722E+02  0.26347510916E+02  0.14447882364E+04  0.14459341396E+04  0.10000000000E+02 0.  1.
</event>
<event>
 5    1  0.1360042E-008  0.3869311E+03  0.7957747E-01  0.3421523E+00
         13   -1    0    0    0    0  0.00000000000E+00  0.00000000000E+00  0.14999999963E+04  0.15000000000E+04  0.10566000000E+00 0. -1.
        994   -1    0    0    0    0 -0.00000000000E+00 -0.00000000000E+00  0.11368683772E-12  0.17120000000E+03  0.17120000000E+03 0.  0.
         13    1    1    2    0    0  0.89359000788E+02 -0.67856532729E+02  0.24427340742E+03  0.26881043282E+03  0.10566000000E+00 0. -1.
        994    1    1    2    0    0 -0.89183844326E+02  0.79043123649E+02  0.75149433827E+02  0.22171705142E+03  0.17120000000E+03 0.  0.
        998    1    1    2    0    0 -0.17515646190E+00 -0.11186590920E+02  0.11805771550E+04  0.11806725158E+04  0.10000000000E+02 0. -1.
</event>
<event>
 5    1  0.1360042E-008  0.3847347E+03  0.7957747E-01  0.3430798E+00
         13   -1    0    0    0    0  0.00000000000E+00  0.00000000000E+00  0.14999999963E+04  0.15000000000E+04  0.10566000000E+00 0.  1.
        994   -1    0    0    0    0 -0.00000000000E+00 -0.00000000000E+00  0.11368683772E-12  0.17120000000E+03  0.17120000000E+03 0.  0.
         13    1    1    2    0    0 -0.16691707158E+02 -0.36311590716E+01  0.86349890968E+02  0.88023367570E+02  0.10566000000E+00 0.  1.
        994    1    1    2    0    0  0.46178452932E+01  0.20224501328E+01  0.18455833815E+01  0.17128415273E+03  0.17120000000E+03 0.  0.
        998    1    1    2    0    0  0.12073861865E+02  0.16087089388E+01  0.14118045219E+04  0.14118924797E+04  0.10000000000E+02 0.  1.
</event>
<event>
 5    1  0.1360042E-008  0.3766588E+03  0.7957747E-01  0.3465837E+00
         13   -1    0    0    0    0  0.00000000000E+00  0.00000000000E+00  0.14999999963E+04  0.15000000000E+04  0.10566000000E+00 0. -1.
        994   -1    0    0    0    0 -0.00000000000E+00 -0.00000000000E+00  0.11368683772E-12  0.17120000000E+03  0.17120000000E+03 0.  0.
         13    1    1    2    0    0 -0.20735649356E+02 -0.16065100210E+02  0.48165005140E+02  0.54844630395E+02  0.10566000000E+00 0. -1.
        994    1    1    2    0    0  0.41583757962E+02  0.55210367690E+02  0.22152803418E+02  0.18595047815E+03  0.17120000000E+03 0.  0.
        998    1    1    2    0    0 -0.20848108606E+02 -0.39145267480E+02  0.14296821877E+04  0.14304048915E+04  0.10000000000E+02 0. -1.
</event>
<event>
 5    1  0.1360042E-008  0.3842678E+03  0.7957747E-01  0.3432783E+00
         13   -1    0    0    0    0  0.00000000000E+00  0.00000000000E+00  0.14999999963E+04  0.15000000000E+04  0.10566000000E+00 0.  1.
        994   -1    0    0    0    0 -0.00000000000E+00 -0.00000000000E+00  0.11368683772E-12  0.17120000000E+03  0.17120000000E+03 0.  0.
         13    1    1    2    0    0 -0.64674425074E+01  0.24538631326E+02  0.13345194395E+03  0.13584330954E+03  0.10566000000E+00 0.  1.
        994    1    1    2    0    0  0.46292272574E+02 -0.30480340610E+02  0.12187433939E+02  0.18036074742E+03  0.17120000000E+03 0.  0.
        998    1    1    2    0    0 -0.39824830066E+02  0.59417092836E+01  0.13543606184E+04  0.13549959430E+04  0.10000000000E+02 0.  1.
</event>
<event>
 5    1  0.1360042E-008  0.3812015E+03  0.7957747E-01  0.3445943E+00
         13   -1    0    0    0    0  0.00000000000E+00  0.00000000000E+00  0.14999999963E+04  0.15000000000E+04  0.10566000000E+00 0. -1.
        994   -1    0    0    0    0 -0.00000000000E+00 -0.00000000000E+00  0.11368683772E-12  0.17120000000E+03  0.17120000000E+03 0.  0.
         13    1    1    2    0    0 -0.24434224813E+02 -0.12609501471E+02  0.10743727209E+03  0.11089999760E+03  0.10566000000E+00 0. -1.
        994    1    1    2    0    0  0.10911031630E+02  0.10089418367E+02  0.42635531714E+01  0.17189666914E+03  0.17120000000E+03 0.  0.
        998    1    1    2    0    0  0.13523193183E+02  0.25200831042E+01  0.13882991710E+04  0.13884033333E+04  0.10000000000E+02 0. -1.
</event>
<event>
 5    1  0.1360042E-008  0.3801097E+03  0.7957747E-01  0.3450681E+00
         13   -1    0    0    0    0  0.00000000000E+00  0.00000000000E+00  0.14999999963E+04  0.15000000000E+04  0.10566000000E+00 0. -1.
        994   -1    0    0    0    0 -0.00000000000E+00 -0.00000000000E+00  0.11368683772E-12  0.17120000000E+03  0.17120000000E+03 0.  0.
         13    1    1    2    0    0 -0.49156362688E+02 -0.68327033283E+02  0.18241711454E+03  0.20090033925E+03  0.10566000000E+00 0. -1.
        994    1    1    2    0    0  0.56574557635E+02  0.67503392604E+02  0.45078912496E+02  0.19773451124E+03  0.17120000000E+03 0.  0.
        998    1    1    2    0    0 -0.74181949470E+01  0.82364067969E+00  0.12725039692E+04  0.12725651495E+04  0.10000000000E+02 0. -1.
</event>
<event>
 5    1  0.1360042E-008  0.3837947E+03  0.7957747E-01  0.3434800E+00
         13   -1    0    0    0    0  0.00000000000E+00  0.00000000000E+00  0.14999999963E+04  0.15000000000E+04  0.10566000000E+00 0.  1.
        994   -1    0    0    0    0 -0.00000000000E+00 -0.00000000000E+00  0.11368683772E-12  0.17120000000E+03  0.17120000000E+03 0.  0.
         13    1    1    2    0    0  0.19145616950E+02  0.13573108707E+02  0.12826090988E+03  0.13039039878E+03  0.10566000000E+00 0.  1.
        994    1    1    2    0    0 -0.12447804179E+02  0.18041482374E+01  0.27522299561E+01  0.17168348071E+03  0.17120000000E+03 0.  0.
        998    1    1    2    0    0 -0.66978127706E+01 -0.15377256944E+02  0.13689868564E+04  0.13691261205E+04  0.10000000000E+02 0.  1.
</event>
<event>
 5    1  0.1360042E-008  0.3831119E+03  0.7957747E-01  0.3437720E+00
         13   -1    0    0    0    0  0.00000000000E+00  0.00000000000E+00  0.14999999963E+04  0.15000000000E+04  0.10566000000E+00 0. -1.
        994   -1    0    0    0    0 -0.00000000000E+00 -0.00000000000E+00  0.11368683772E-12  0.17120000000E+03  0.17120000000E+03 0.  0.
         13    1    1    2    0    0 -0.15411359459E+02  0.36233811452E+01  0.47351565228E+02  0.49928156233E+02  0.10566000000E+00 0. -1.
        994    1    1    2    0    0  0.16586981000E+02  0.11070823321E+02  0.38874938810E+01  0.17240140277E+03  0.17120000000E+03 0.  0.
        998    1    1    2    0    0 -0.11756215413E+01 -0.14694204466E+02  0.14487609372E+04  0.14488704410E+04  0.10000000000E+02 0. -1.
</event>
<event>
 5    1  0.1360042E-008  0.3789325E+03  0.7957747E-01  0.3455820E+00
         13   -1    0    0    0    0  0.00000000000E+00  0.00000000000E+00  0.14999999963E+04  0.15000000000E+04  0.10566000000E+00 0. -1.
        994   -1    0    0    0    0 -0.00000000000E+00 -0.00000000000E+00  0.11368683772E-12  0.17120000000E+03  0.17120000000E+03 0.  0.
         13    1    1    2    0    0 -0.23095602089E+02 -0.10858515775E+02  0.68208468802E+02  0.72826647466E+02  0.10566000000E+00 0. -1.
        994    1    1    2    0    0  0.49835987128E+01  0.25779383397E+02  0.69892263352E+01  0.17334273030E+03  0.17120000000E+03 0.  0.
        998    1    1    2    0    0  0.18112003376E+02 -0.14920867621E+02  0.14248023011E+04  0.14250306222E+04  0.10000000000E+02 0. -1.
</event>
<event>
 5    1  0.1360042E-008  0.3802379E+03  0.7957747E-01  0.3450123E+00
         13   -1    0    0    0    0  0.00000000000E+00  0.00000000000E+00  0.14999999963E+04  0.15000000000E+04  0.10566000000E+00 0. -1.
        994   -1    0    0    0    0 -0.00000000000E+00 -0.00000000000E+00  0.11368683772E-12  0.17120000000E+03  0.17120000000E+03 0.  0.
         13    1    1    2    0    0  0.20117587279E+02  0.98361648230E+01  0.61533577631E+02  0.65481751629E+02  0.10566000000E+00 0. -1.
        994    1    1    2    0    0 -0.18387595114E+02  0.92488297876E+01  0.54294817243E+01  0.17251829984E+03  0.17120000000E+03 0.  0.
        998    1    1    2    0    0 -0.17299921653E+01 -0.19084994611E+02  0.14330369369E+04  0.14331999485E+04  0.10000000000E+02 0. -1.
</event>
<event>
 5    1  0.1360042E-008  0.3809636E+03  0.7957747E-01  0.3446974E+00
         13   -1    0    0    0    0  0.00000000000E+00  0.00000000000E+00  0.14999999963E+04  0.15000000000E+04  0.10566000000E+00 0.  1.
        994   -1    0    0    0    0 -0.00000000000E+00 -0.00000000000E+00  0.11368683772E-12  0.17120000000E+03  0.17120000000E+03 0.  0.
         13    1    1    2    0    0  0.38962929143E+02  0.92532550443E+01  0.19779131280E+03  0.20180472531E+03  0.10566000000E+00 0.  1.
        994    1    1    2    0    0 -0.34972145127E+02 -0.94933618822E+01  0.80358111856E+01  0.17517759308E+03  0.17120000000E+03 0.  0.
        998    1    1    2    0    0 -0.39907840161E+01  0.24010683790E+00  0.12941728723E+04  0.12942176816E+04  0.10000000000E+02 0.  1.
</event>
<event>
 5    1  0.1360042E-008  0.3788558E+03  0.7957747E-01  0.3456156E+00
         13   -1    0    0    0    0  0.00000000000E+00  0.00000000000E+00  0.14999999963E+04  0.15000000000E+04  0.10566000000E+00 0.  1.
        994   -1    0    0    0    0 -0.00000000000E+00 -0.00000000000E+00  0.11368683772E-12  0.17120000000E+03  0.17120000000E+03 0.  0.
         13    1    1    2    0    0 -0.33612332679E+02 -0.50716428750E+02  0.30528763011E+03  0.31129165314E+03  0.10566000000E+00 0.  1.
        994    1    1    2    0    0  0.45894691819E+02  0.46222501820E+02  0.19083522077E+02  0.18416422895E+03  0.17120000000E+03 0.  0.
        998    1    1    2    0    0 -0.12282359140E+02  0.44939269298E+01  0.11756288441E+04  0.11757441179E+04  0.10000000000E+02 0.  1.
</event>
<event>
 5    1  0.1360042E-008  0.3686003E+03  0.7957747E-01  0.3502348E+00
         13   -1    0    0    0    0  0.00000000000E+00  0.00000000000E+00  0.14999999963E+04  0.15000000000E+04  0.10566000000E+00 0.  1.
        994   -1    0    0    0    0 -0.00000000000E+00 -0.00000000000E+00  0.11368683772E-12  0.17120000000E+03  0.17120000000E+03 0.  0.
         13    1    1    2    0    0  0.26701809258E+02 -0.57998975698E+02  0.17656531719E+03  0.18775566622E+03  0.10566000000E+00 0.  1.
        994    1    1    2    0    0 -0.54305071894E+02  0.42601321634E+02  0.26962610415E+02  0.18654848109E+03  0.17120000000E+03 0.  0.
        998    1    1    2    0    0  0.27603262635E+02  0.15397654064E+02  0.12964720687E+04  0.12968958527E+04  0.10000000000E+02 0.  1.
</event>
<event>
 5    1  0.1360042E-008  0.3796988E+03  0.7957747E-01  0.3452471E+00
         13   -1    0    0    0    0  0.00000000000E+00  0.00000000000E+00  0.14999999963E+04  0.15000000000E+04  0.10566000000E+00 0. -1.
        994   -1    0    0    0    0 -0.00000000000E+00 -0.00000000000E+00  0.11368683772E-12  0.17120000000E+03  0.17120000000E+03 0.  0.
         13    1    1    2    0    0  0.15039874300E+02 -0.25721006526E+02  0.10663885753E+03  0.11072319132E+03  0.10566000000E+00 0. -1.
        994    1    1    2    0    0 -0.75337423622E+02 -0.26689882659E+02  0.25966609224E+02  0.19071387477E+03  0.17120000000E+03 0.  0.
        998    1    1    2    0    0  0.60297549322E+02  0.52410889185E+02  0.13673945295E+04  0.13697629339E+04  0.10000000000E+02 0. -1.
</event>
<event>
 5    1  0.1360042E-008  0.3816943E+03  0.7957747E-01  0.3443814E+00
         13   -1    0    0    0    0  0.00000000000E+00  0.00000000000E+00  0.14999999963E+04  0.15000000000E+04  0.10566000000E+00 0.  1.
        994   -1    0    0    0    0 -0.00000000000E+00 -0.00000000000E+00  0.11368683772E-12  0.17120000000E+03  0.17120000000E+03 0.  0.
         13    1    1    2    0    0 -0.87271996721E+01 -0.15503384460E+02  0.54459979992E+02  0.57292403759E+02  0.10566000000E+00 0.  1.
        994    1    1    2    0    0 -0.21984651466E+02 -0.12523608205E+02  0.54113243481E+01  0.17314412521E+03  0.17120000000E+03 0.  0.
        998    1    1    2    0    0  0.30711851138E+02  0.28026992665E+02  0.14401286919E+04  0.14407634710E+04  0.10000000000E+02 0.  1.
</event>
<event>
 5    1  0.1360042E-008  0.3829130E+03  0.7957747E-01  0.3438572E+00
         13   -1    0    0    0    0  0.00000000000E+00  0.00000000000E+00  0.14999999963E+04  0.15000000000E+04  0.10566000000E+00 0.  1.
        994   -1    0    0    0    0 -0.00000000000E+00 -0.00000000000E+00  0.11368683772E-12  0.17120000000E+03  0.17120000000E+03 0.  0.
         13    1    1    2    0    0 -0.26585063851E+01  0.11079072084E+02  0.22916125700E+02  0.25592449582E+02  0.10566000000E+00 0.  1.
        994    1    1    2    0    0  0.26696197045E+01 -0.13361094326E+02  0.32847557027E+01  0.17177274327E+03  0.17120000000E+03 0.  0.
        998    1    1    2    0    0 -0.11113319427E-01  0.22820222418E+01  0.14737991149E+04  0.14738348071E+04  0.10000000000E+02 0.  1.
</event>
<event>
 5    1  0.1360042E-008  0.3769782E+03  0.7957747E-01  0.3464422E+00
         13   -1    0    0    0    0  0.00000000000E+00  0.00000000000E+00  0.14999999963E+04  0.15000000000E+04  0.10566000000E+00 0. -1.
        994   -1    0    0    0    0 -0.00000000000E+00 -0.00000000000E+00  0.11368683772E-12  0.17120000000E+03  0.17120000000E+03 0.  0.
         13    1    1    2    0    0  0.54127152446E+02  0.44772153227E+02  0.14662836524E+03  0.16258592496E+03  0.10566000000E+00 0. -1.
        994    1    1    2    0    0 -0.51248650115E+02 -0.51577989537E+02  0.33876340655E+02  0.18906020099E+03  0.17120000000E+03 0.  0.
        998    1    1    2    0    0 -0.28785023318E+01  0.68058363098E+01  0.13194952904E+04  0.13195538740E+04  0.10000000000E+02 0. -1.
</event>
<event>
 5    1  0.1360042E-008  0.3794774E+03  0.7957747E-01  0.3453437E+00
         13   -1    0    0    0    0  0.00000000000E+00  0.00000000000E+00  0.14999999963E+04  0.15000000000E+04  0.10566000000E+00 0.  1.
        994   -1    0    0    0    0 -0.00000000000E+00 -0.00000000000E+00  0.11368683772E-12  0.17120000000E+03  0.17120000000E+03 0.  0.
         13    1    1    2    0    0 -0.99063035912E+01 -0.22013270898E+02  0.59244933908E+02  0.63974153408E+02  0.10566000000E+00 0.  1.
        994    1    1    2    0    0  0.34131992334E+02  0.26004008417E+02  0.10587627197E+02  0.17681272354E+03  0.17120000000E+03 0.  0.
        998    1    1    2    0    0 -0.24225688743E+02 -0.39907375192E+01  0.14301674352E+04  0.14304131231E+04  0.10000000000E+02 0.  1.
</event>
<event>
 5    1  0.1360042E-008  0.3846062E+03  0.7957747E-01  0.3431344E+00
         13   -1    0    0    0    0  0.00000000000E+00  0.00000000000E+00  0.14999999963E+04  0.15000000000E+04  0.10566000000E+00 0.  1.
        994   -1    0    0    0    0 -0.00000000000E+00 -0.00000000000E+00  0.11368683772E-12  0.17120000000E+03  0.17120000000E+03 0.  0.
         13    1    1    2    0    0  0.67957163416E+01  0.85571704829E+01  0.32292354484E+02  0.34091263535E+02  0.10566000000E+00 0.  1.
        994    1    1    2    0    0 -0.21355078526E+01 -0.82334529940E+01  0.20640636756E+01  0.17142359960E+03  0.17120000000E+03 0.  0.
        998    1    1    2    0    0 -0.46602084890E+01 -0.32371748889E+00  0.14656435781E+04  0.14656851369E+04  0.10000000000E+02 0.  1.
</event>
<event>
 5    1  0.1360042E-008  0.3775125E+03  0.7957747E-01  0.3462062E+00
         13   -1    0    0    0    0  0.00000000000E+00  0.00000000000E+00  0.14999999963E+04  0.15000000000E+04  0.10566000000E+00 0.  1.
        994   -1    0    0    0    0 -0.00000000000E+00 -0.00000000000E+00  0.11368683772E-12  0.17120000000E+03  0.17120000000E+03 0.  0.
         13    1    1    2    0    0 -0.70786310209E+02 -0.12521979022E+03  0.43723226097E+03  0.46028551875E+03  0.10566000000E+00 0.  1.
        994    1    1    2    0    0  0.74389041827E+02  0.13033438473E+03  0.10097689315E+03  0.24905130864E+03  0.17120000000E+03 0.  0.
        998    1    1    2    0    0 -0.36027316187E+01 -0.51145945080E+01  0.96179084216E+03  0.96186317261E+03  0.10000000000E+02 0.  1.
</event>
<event>
 5    1  0.1360042E-008  0.3824440E+03  0.7957747E-01  0.3440585E+00
         13   -1    0    0    0    0  0.00000000000E+00  0.00000000000E+00  0.14999999963E+04  0.15000000000E+04  0.10566000000E+00 0.  1.
        994   -1    0    0    0    0 -0.00000000000E+00 -0.00000000000E+00  0.11368683772E-12  0.17120000000E+03  0.17120000000E+03 0.  0.
         13    1    1    2    0    0 -0.21745861721E+02 -0.26143952889E+01  0.85460948269E+02  0.88223026517E+02  0.10566000000E+00 0.  1.
        994    1    1    2    0    0  0.55360449550E+01  0.14945733538E+01  0.30135227105E+01  0.17132251125E+03  0.17120000000E+03 0.  0.
        998    1    1    2    0    0  0.16209816766E+02  0.11198219350E+01  0.14115255253E+04  0.14116544622E+04  0.10000000000E+02 0.  1.
</event>
<event>
 5    1  0.1360042E-008  0.3740437E+03  0.7957747E-01  0.3477511E+00
         13   -1    0    0    0    0  0.00000000000E+00  0.00000000000E+00  0.14999999963E+04  0.15000000000E+04  0.10566000000E+00 0.  1.
        994   -1    0    0    0    0 -0.00000000000E+00 -0.00000000000E+00  0.11368683772E-12  0.17120000000E+03  0.17120000000E+03 0.  0.
         13    1    1    2    0    0 -0.10888049313E+02  0.20187472688E+02  0.33083861534E+02  0.40257132653E+02  0.10566000000E+00 0.  1.
        994    1    1    2    0    0  0.88419439540E+01 -0.21503898319E+02  0.90163323724E+01  0.17300673936E+03  0.17120000000E+03 0.  0.
        998    1    1    2    0    0  0.20461053590E+01  0.13164256306E+01  0.14578998024E+04  0.14579361280E+04  0.10000000000E+02 0.  1.
</event>
<event>
 5    1  0.1360042E-008  0.3831457E+03  0.7957747E-01  0.3437575E+00
         13   -1    0    0    0    0  0.00000000000E+00  0.00000000000E+00  0.14999999963E+04  0.15000000000E+04  0.10566000000E+00 0. -1.
        994   -1    0    0    0    0 -0.00000000000E+00 -0.00000000000E+00  0.11368683772E-12  0.17120000000E+03  0.17120000000E+03 0.  0.
         13    1    1    2    0    0 -0.77006479633E+01 -0.19890250029E+02  0.93992518488E+02  0.96382190891E+02  0.10566000000E+00 0. -1.
        994    1    1    2    0    0 -0.47130408602E+00  0.39305473643E+01  0.26054106726E+01  0.17126558176E+03  0.17120000000E+03 0.  0.
        998    1    1    2    0    0  0.81719520493E+01  0.15959702665E+02  0.14034020671E+04  0.14035522274E+04  0.10000000000E+02 0. -1.
</event>
<event>
 5    1  0.1360042E-008  0.3849938E+03  0.7957747E-01  0.3429698E+00
         13   -1    0    0    0    0  0.00000000000E+00  0.00000000000E+00  0.14999999963E+04  0.15000000000E+04  0.10566000000E+00 0.  1.
        994   -1    0    0    0    0 -0.00000000000E+00 -0.00000000000E+00  0.11368683772E-12  0.17120000000E+03  0.17120000000E+03 0.  0.
         13    1    1    2    0    0 -0.10606521721E+02  0.15114121472E+02  0.10625623154E+03  0.10784865727E+03  0.10566000000E+00 0.  1.
        994    1    1    2    0    0 -0.77733608868E+01 -0.17778274722E+02  0.28723555543E+01  0.17232000063E+03  0.17120000000E+03 0.  0.
        998    1    1    2    0    0  0.18379882608E+02  0.26641532500E+01  0.13908714092E+04  0.13910313421E+04  0.10000000000E+02 0.  1.
</event>
<event>
 5    1  0.1360042E-008  0.3857061E+03  0.7957747E-01  0.3426683E+00
         13   -1    0    0    0    0  0.00000000000E+00  0.00000000000E+00  0.14999999963E+04  0.15000000000E+04  0.10566000000E+00 0. -1.
        994   -1    0    0    0    0 -0.00000000000E+00 -0.00000000000E+00  0.11368683772E-12  0.17120000000E+03  0.17120000000E+03 0.  0.
         13    1    1    2    0    0 -0.65231089859E+01  0.84769381805E+01  0.45417064399E+02  0.46659729258E+02  0.10566000000E+00 0. -1.
        994    1    1    2    0    0  0.59377203959E+01 -0.25567291784E+01  0.14171229719E+01  0.17132787755E+03  0.17120000000E+03 0.  0.
        998    1    1    2    0    0  0.58538859000E+00 -0.59202090021E+01  0.14531658089E+04  0.14532123932E+04  0.10000000000E+02 0. -1.
</event>
<event>
 5    1  0.1360042E-008  0.3855799E+03  0.7957747E-01  0.3427217E+00
         13   -1    0    0    0    0  0.00000000000E+00  0.00000000000E+00  0.14999999963E+04  0.15000000000E+04  0.10566000000E+00 0.  1.
        994   -1    0    0    0    0 -0.00000000000E+00 -0.00000000000E+00  0.11368683772E-12  0.17120000000E+03  0.17120000000E+03 0.  0.
         13    1    1    2    0    0 -0.79974923276E+01  0.98422397522E+01  0.54580635203E+02  0.56034689881E+02  0.10566000000E+00 0.  1.
        994    1    1    2    0    0  0.21829529688E+02 -0.13596950907E+02  0.35165670945E+01  0.17315661028E+03  0.17120000000E+03 0.  0.
        998    1    1    2    0    0 -0.13832037360E+02  0.37547111551E+01  0.14419027940E+04  0.14420086998E+04  0.10000000000E+02 0.  1.
</event>
<event>
 5    1  0.1360042E-008  0.3755639E+03  0.7957747E-01  0.3470705E+00
         13   -1    0    0    0    0  0.00000000000E+00  0.00000000000E+00  0.14999999963E+04  0.15000000000E+04  0.10566000000E+00 0.  1.
        994   -1    0    0    0    0 -0.00000000000E+00 -0.00000000000E+00  0.11368683772E-12  0.17120000000E+03  0.17120000000E+03 0.  0.
         13    1    1    2    0    0  0.14082993106E+02  0.39104375361E+02  0.59321131735E+02  0.72432663223E+02  0.10566000000E+00 0.  1.
        994    1    1    2    0    0  0.23131775844E+01 -0.15467707968E+02  0.14784153882E+02  0.17254741953E+03  0.17120000000E+03 0.  0.
        998    1    1    2    0    0 -0.16396170691E+02 -0.23636667393E+02  0.14258947107E+04  0.14262199172E+04  0.10000000000E+02 0.  1.
</event>
<event>
 5    1  0.1360042E-008  0.3861364E+03  0.7957747E-01  0.3424867E+00
         13   -1    0    0    0    0  0.00000000000E+00  0.00000000000E+00  0.14999999963E+04  0.15000000000E+04  0.10566000000E+00 0.  1.
        994   -1    0    0    0    0 -0.00000000000E+00 -0.00000000000E+00  0.11368683772E-12  0.17120000000E+03  0.17120000000E+03 0.  0.
         13    1    1    2    0    0  0.11470578766E+02 -0.25253820933E+01  0.64037292602E+02  0.65105589160E+02  0.10566000000E+00 0.  1.
        994    1    1    2    0    0 -0.90182096609E+01  0.10132714785E+02  0.16700856668E+01  0.17174466280E+03  0.17120000000E+03 0.  0.
        998    1    1    2    0    0 -0.24523691051E+01 -0.76073326921E+01  0.14342926180E+04  0.14343497480E+04  0.10000000000E+02 0.  1.
</event>
<event>
 5    1  0.1360042E-008  0.3783832E+03  0.7957747E-01  0.3458229E+00
         13   -1    0    0    0    0  0.00000000000E+00  0.00000000000E+00  0.14999999963E+04  0.15000000000E+04  0.10566000000E+00 0.  1.
        994   -1    0    0    0    0 -0.00000000000E+00 -0.00000000000E+00  0.11368683772E-12  0.17120000000E+03  0.17120000000E+03 0.  0.
         13    1    1    2    0    0  0.61597096710E+02  0.20611481430E+02  0.35305798474E+03  0.35898326875E+03  0.10566000000E+00 0.  1.
        994    1    1    2    0    0 -0.65583260543E+02  0.10879456513E+02  0.19951590012E+02  0.18473503344E+03  0.17120000000E+03 0.  0.
        998    1    1    2    0    0  0.39861638331E+01 -0.31490937943E+02  0.11269904215E+04  0.11274816978E+04  0.10000000000E+02 0.  1.
</event>
<event>
 5    1  0.1360042E-008  0.3844998E+03  0.7957747E-01  0.3431796E+00
         13   -1    0    0    0    0  0.00000000000E+00  0.00000000000E+00  0.14999999963E+04  0.15000000000E+04  0.10566000000E+00 0.  1.
        994   -1    0    0    0    0 -0.00000000000E+00 -0.00000000000E+00  0.11368683772E-12  0.17120000000E+03  0.17120000000E+03 0.  0.
         13    1    1    2    0    0 -0.46982016119E+01  0.19921130635E+02  0.12035212672E+03  0.12208017904E+03  0.10566000000E+00 0.  1.
        994    1    1    2    0    0  0.18229695770E+01 -0.29090118521E+01  0.19175181035E+01  0.17124515305E+03  0.17120000000E+03 0.  0.
        998    1    1    2    0    0  0.28752320349E+01 -0.17012118783E+02  0.13777303515E+04  0.13778746679E+04  0.10000000000E+02 0.  1.
</event>
<event>
 5    1  0.1360042E-008  0.3813118E+03  0.7957747E-01  0.3445466E+00
         13   -1    0    0    0    0  0.00000000000E+00  0.00000000000E+00  0.14999999963E+04  0.15000000000E+04  0.10566000000E+00 0. -1.
        994   -1    0    0    0    0 -0.00000000000E+00 -0.00000000000E+00  0.11368683772E-12  0.17120000000E+03  0.17120000000E+03 0.  0.
         13    1    1    2    0    0  0.25437274686E+02  0.27724481245E+02  0.18127064925E+03  0.18513444101E+03  0.10566000000E+00 0. -1.
        994    1    1    2    0    0 -0.18134882703E+02 -0.33578293499E+02  0.83351674706E+01  0.17559980291E+03  0.17120000000E+03 0.  0.
        998    1    1    2    0    0 -0.73023919825E+01  0.58538122546E+01  0.13103941796E+04  0.13104657561E+04  0.10000000000E+02 0. -1.
</event>
<event>
 5    1  0.1360042E-008  0.3782646E+03  0.7957747E-01  0.3458750E+00
         13   -1    0    0    0    0  0.00000000000E+00  0.00000000000E+00  0.14999999963E+04  0.15000000000E+04  0.10566000000E+00 0.  1.
        994   -1    0    0    0    0 -0.00000000000E+00 -0.00000000000E+00  0.11368683772E-12  0.17120000000E+03  0.17120000000E+03 0.  0.
         13    1    1    2    0    0 -0.61174574851E+02  0.55653123011E+02  0.46197179434E+03  0.46931604345E+03  0.10566000000E+00 0.  1.
        994    1    1    2    0    0  0.59258988467E+02 -0.59419498413E+02  0.29066928767E+02  0.19286428092E+03  0.17120000000E+03 0.  0.
        998    1    1    2    0    0  0.19155863840E+01  0.37663754024E+01  0.10089612732E+04  0.10090196756E+04  0.10000000000E+02 0.  0.
</event>
<event>
 5    1  0.1360042E-008  0.3692256E+03  0.7957747E-01  0.3499458E+00
         13   -1    0    0    0    0  0.00000000000E+00  0.00000000000E+00  0.14999999963E+04  0.15000000000E+04  0.10566000000E+00 0. -1.
        994   -1    0    0    0    0 -0.00000000000E+00 -0.00000000000E+00  0.11368683772E-12  0.17120000000E+03  0.17120000000E+03 0.  0.
         13    1    1    2    0    0  0.53806036391E+02  0.36983828720E+02  0.22481588820E+03  0.23410486516E+03  0.10566000000E+00 0. -1.
        994    1    1    2    0    0 -0.21999880124E+02  0.37151926868E+01  0.12267394924E+02  0.17308300425E+03  0.17120000000E+03 0.  0.
        998    1    1    2    0    0 -0.31806156267E+02 -0.40699021407E+02  0.12629167132E+04  0.12640121306E+04  0.10000000000E+02 0. -1.
</event>
<event>
 5    1  0.1360042E-008  0.3839873E+03  0.7957747E-01  0.3433979E+00
         13   -1    0    0    0    0  0.00000000000E+00  0.00000000000E+00  0.14999999963E+04  0.15000000000E+04  0.10566000000E+00 0. -1.
        994   -1    0    0    0    0 -0.00000000000E+00 -0.00000000000E+00  0.11368683772E-12  0.17120000000E+03  0.17120000000E+03 0.  0.
         13    1    1    2    0    0  0.96429862865E+01  0.33668010354E+01  0.25148126145E+02  0.27143359158E+02  0.10566000000E+00 0. -1.
        994    1    1    2    0    0  0.84285442903E+01  0.25527161831E+00  0.23684315535E+01  0.17142390437E+03  0.17120000000E+03 0.  0.
        998    1    1    2    0    0 -0.18071530577E+02 -0.36220726537E+01  0.14724834386E+04  0.14726327365E+04  0.10000000000E+02 0. -1.
</event>
<event>
 5    1  0.1360042E-008  0.3752810E+03  0.7957747E-01  0.3471967E+00
         13   -1    0    0    0    0  0.00000000000E+00  0.00000000000E+00  0.14999999963E+04  0.15000000000E+04  0.10566000000E+00 0.  1.
        994   -1    0    0    0    0 -0.00000000000E+00 -0.00000000000E+00  0.11368683772E-12  0.17120000000E+03  0.17120000000E+03 0.  0.
         13    1    1    2    0    0 -0.15195949705E+02  0.58312516857E+01  0.17350275116E+02  0.23789989372E+02  0.10566000000E+00 0.  1.
        994    1    1    2    0    0  0.14111221314E+02 -0.16088801414E+01  0.72197973772E+01  0.17193975845E+03  0.17120000000E+03 0.  0.
        998    1    1    2    0    0  0.10847283914E+01 -0.42223715444E+01  0.14754299238E+04  0.14754702522E+04  0.10000000000E+02 0.  1.
</event>
<event>
 5    1  0.1360042E-008  0.3843734E+03  0.7957747E-01  0.3432334E+00
         13   -1    0    0    0    0  0.00000000000E+00  0.00000000000E+00  0.14999999963E+04  0.15000000000E+04  0.10566000000E+00 0. -1.
        994   -1    0    0    0    0 -0.00000000000E+00 -0.00000000000E+00  0.11368683772E-12  0.17120000000E+03  0.17120000000E+03 0.  0.
         13    1    1    2    0    0 -0.20310929795E+02 -0.24556400075E+01  0.11571317428E+03  0.11750793124E+03  0.10566000000E+00 0. -1.
        994    1    1    2    0    0  0.33886891519E+01  0.12961326955E+01  0.19849290402E+01  0.17124994341E+03  0.17120000000E+03 0.  0.
        998    1    1    2    0    0  0.16922240643E+02  0.11595073120E+01  0.13823018930E+04  0.13824421254E+04  0.10000000000E+02 0. -1.
</event>
<event>
 5    1  0.1360042E-008  0.3731851E+03  0.7957747E-01  0.3481380E+00
         13   -1    0    0    0    0  0.00000000000E+00  0.00000000000E+00  0.14999999963E+04  0.15000000000E+04  0.10566000000E+00 0. -1.
        994   -1    0    0    0    0 -0.00000000000E+00 -0.00000000000E+00  0.11368683772E-12  0.17120000000E+03  0.17120000000E+03 0.  0.
         13    1    1    2    0    0 -0.98198489677E+01  0.68581824770E+02  0.16377998546E+03  0.17783079296E+03  0.10566000000E+00 0. -1.
        994    1    1    2    0    0  0.15263878851E+02 -0.71004405330E+02  0.31523464571E+02  0.18862073161E+03  0.17120000000E+03 0.  0.
        998    1    1    2    0    0 -0.54440298831E+01  0.24225805599E+01  0.13046965462E+04  0.13047484754E+04  0.10000000000E+02 0. -1.
</event>
<event>
 5    1  0.1360042E-008  0.3836052E+03  0.7957747E-01  0.3435609E+00
         13   -1    0    0    0    0  0.00000000000E+00  0.00000000000E+00  0.14999999963E+04  0.15000000000E+04  0.10566000000E+00 0.  1.
        994   -1    0    0    0    0 -0.00000000000E+00 -0.00000000000E+00  0.11368683772E-12  0.17120000000E+03  0.17120000000E+03 0.  0.
         13    1    1    2    0    0 -0.24040411345E+01 -0.14886022361E+02  0.46855161362E+02  0.49221848663E+02  0.10566000000E+00 0.  1.
        994    1    1    2    0    0  0.54513378095E+01  0.15961061198E+02  0.32645553502E+01  0.17205978577E+03  0.17120000000E+03 0.  0.
        998    1    1    2    0    0 -0.30472966751E+01 -0.10750388375E+01  0.14498802796E+04  0.14499183656E+04  0.10000000000E+02 0.  1.
</event>
<event>
 5    1  0.1360042E-008  0.3796060E+03  0.7957747E-01  0.3452876E+00
         13   -1    0    0    0    0  0.00000000000E+00  0.00000000000E+00  0.14999999963E+04  0.15000000000E+04  0.10566000000E+00 0.  1.
        994   -1    0    0    0    0 -0.00000000000E+00 -0.00000000000E+00  0.11368683772E-12  0.17120000000E+03  0.17120000000E+03 0.  0.
         13    1    1    2    0    0  0.17739573881E+02  0.15537719010E+02  0.59713643031E+02  0.64201585040E+02  0.10566000000E+00 0.  1.
        994    1    1    2    0    0 -0.15251773503E+02 -0.23511388249E+02  0.69655956795E+01  0.17361843651E+03  0.17120000000E+03 0.  0.
        998    1    1    2    0    0 -0.24878003778E+01  0.79736692390E+01  0.14333207576E+04  0.14333799785E+04  0.10000000000E+02 0.  1.
</event>
<event>
 5    1  0.1360042E-008  0.3821385E+03  0.7957747E-01  0.3441900E+00
         13   -1    0    0    0    0  0.00000000000E+00  0.00000000000E+00  0.14999999963E+04  0.15000000000E+04  0.10566000000E+00 0.  1.
        994   -1    0    0    0    0 -0.00000000000E+00 -0.00000000000E+00  0.11368683772E-12  0.17120000000E+03  0.17120000000E+03 0.  0.
         13    1    1    2    0    0 -0.18744433172E+02  0.17714672598E+02  0.10228803402E+03  0.10548941400E+03  0.10566000000E+00 0.  1.
        994    1    1    2    0    0  0.16168325012E+02 -0.18841895803E+02  0.51064277475E+01  0.17306630919E+03  0.17120000000E+03 0.  0.
        998    1    1    2    0    0  0.25761081601E+01  0.11272232049E+01  0.13926055345E+04  0.13926442768E+04  0.10000000000E+02 0.  1.
</event>
<event>
 5    1  0.1360042E-008  0.3840412E+03  0.7957747E-01  0.3433749E+00
         13   -1    0    0    0    0  0.00000000000E+00  0.00000000000E+00  0.14999999963E+04  0.15000000000E+04  0.10566000000E+00 0. -1.
        994   -1    0    0    0    0 -0.00000000000E+00 -0.00000000000E+00  0.11368683772E-12  0.17120000000E+03  0.17120000000E+03 0.  0.
         13    1    1    2    0    0 -0.12762430853E+02 -0.14937885178E+01  0.41087945657E+02  0.43050452817E+02  0.10566000000E+00 0. -1.
        994    1    1    2    0    0 -0.58151580870E+01  0.11053116449E+02  0.26216808200E+01  0.17167498553E+03  0.17120000000E+03 0.  0.
        998    1    1    2    0    0  0.18577588940E+02 -0.95593279311E+01  0.14562903698E+04  0.14564745617E+04  0.10000000000E+02 0. -1.
</event>
<event>
 5    1  0.1360042E-008  0.3852295E+03  0.7957747E-01  0.3428700E+00
         13   -1    0    0    0    0  0.00000000000E+00  0.00000000000E+00  0.14999999963E+04  0.15000000000E+04  0.10566000000E+00 0.  1.
        994   -1    0    0    0    0 -0.00000000000E+00 -0.00000000000E+00  0.11368683772E-12  0.17120000000E+03  0.17120000000E+03 0.  0.
         13    1    1    2    0    0  0.11344790994E+02  0.34360223559E+01  0.44384071676E+02  0.45939824933E+02  0.10566000000E+00 0.  1.
        994    1    1    2    0    0 -0.10924036562E+02 -0.20055288358E+02  0.32320534730E+01  0.17274673755E+03  0.17120000000E+03 0.  0.
        998    1    1    2    0    0 -0.42075443263E+00  0.16619266002E+02  0.14523838711E+04  0.14525134375E+04  0.10000000000E+02 0.  1.
</event>
<event>
 5    1  0.1360042E-008  0.3846471E+03  0.7957747E-01  0.3431170E+00
         13   -1    0    0    0    0  0.00000000000E+00  0.00000000000E+00  0.14999999963E+04  0.15000000000E+04  0.10566000000E+00 0.  1.
        994   -1    0    0    0    0 -0.00000000000E+00 -0.00000000000E+00  0.11368683772E-12  0.17120000000E+03  0.17120000000E+03 0.  0.
         13    1    1    2    0    0  0.18940689148E+02  0.11852449706E+02  0.12880638032E+03  0.13072996996E+03  0.10566000000E+00 0.  1.
        994    1    1    2    0    0 -0.21266649424E+02 -0.76739782317E+01  0.34901921759E+01  0.17272168874E+03  0.17120000000E+03 0.  0.
        998    1    1    2    0    0  0.23259602766E+01 -0.41784714743E+01  0.13677034238E+04  0.13677483413E+04  0.10000000000E+02 0.  1.
</event>
<event>
 5    1  0.1360042E-008  0.3852359E+03  0.7957747E-01  0.3428672E+00
         13   -1    0    0    0    0  0.00000000000E+00  0.00000000000E+00  0.14999999963E+04  0.15000000000E+04  0.10566000000E+00 0. -1.
        994   -1    0    0    0    0 -0.00000000000E+00 -0.00000000000E+00  0.11368683772E-12  0.17120000000E+03  0.17120000000E+03 0.  0.
         13    1    1    2    0    0 -0.36152092743E+01 -0.14876788248E+02  0.79894569228E+02  0.81348275476E+02  0.10566000000E+00 0. -1.
        994    1    1    2    0    0 -0.79407618231E+01  0.83479537820E+01  0.19493893294E+01  0.17159832211E+03  0.17120000000E+03 0.  0.
        998    1    1    2    0    0  0.11555971097E+02  0.65288344665E+01  0.14181560377E+04  0.14182534024E+04  0.10000000000E+02 0. -1.
</event>
<event>
 5    1  0.1360042E-008  0.3863926E+03  0.7957747E-01  0.3423787E+00
         13   -1    0    0    0    0  0.00000000000E+00  0.00000000000E+00  0.14999999963E+04  0.15000000000E+04  0.10566000000E+00 0. -1.
        994   -1    0    0    0    0 -0.00000000000E+00 -0.00000000000E+00  0.11368683772E-12  0.17120000000E+03  0.17120000000E+03 0.  0.
         13    1    1    2    0    0  0.93585613916E+01  0.51720406462E+02  0.65054017940E+02  0.83633842014E+02  0.10566000000E+00 0. -1.
        994    1    1    2    0    0  0.31310059185E+02 -0.27865238191E+02  0.26431131393E+02  0.17822692280E+03  0.17120000000E+03 0.  0.
        998    1    1    2    0    0 -0.40668620576E+02 -0.23855168272E+02  0.14085148469E+04  0.14093392352E+04  0.10000000000E+02 0. -1.
</event>
<event>
 5    1  0.1360042E-008  0.4559522E+03  0.7957747E-01  0.3175162E+00
         13   -1    0    0    0    0  0.00000000000E+00  0.00000000000E+00  0.14999999963E+04  0.15000000000E+04  0.10566000000E+00 0. -1.
        994   -1    0    0    0    0 -0.00000000000E+00 -0.00000000000E+00  0.11368683772E-12  0.17120000000E+03  0.17120000000E+03 0.  0.
         13    1    1    2    0    0 -0.47555875244E+02  0.66798710848E+02  0.29612180250E+02  0.87180969393E+02  0.10566000000E+00 0. -1.
        994    1    1    2    0    0  0.40786064514E+02 -0.68356313670E+02  0.10013358132E+03  0.21371069881E+03  0.17120000000E+03 0.  0.
        998    1    1    2    0    0  0.67698107303E+01  0.15576028213E+01  0.13702542347E+04  0.13703083318E+04  0.10000000000E+02 0. -1.
</event>
<event>
 5    1  0.1360042E-008  0.3778863E+03  0.7957747E-01  0.3460414E+00
         13   -1    0    0    0    0  0.00000000000E+00  0.00000000000E+00  0.14999999963E+04  0.15000000000E+04  0.10566000000E+00 0. -1.
        994   -1    0    0    0    0 -0.00000000000E+00 -0.00000000000E+00  0.11368683772E-12  0.17120000000E+03  0.17120000000E+03 0.  0.
         13    1    1    2    0    0  0.12647444681E+02  0.17945910839E+02  0.44203273154E+02  0.49355385668E+02  0.10566000000E+00 0. -1.
        994    1    1    2    0    0 -0.30398085058E+01 -0.16269772360E+02  0.61267031096E+01  0.17210729915E+03  0.17120000000E+03 0.  0.
        998    1    1    2    0    0 -0.96076361757E+01 -0.16761384793E+01  0.14496700200E+04  0.14497373152E+04  0.10000000000E+02 0. -1.
</event>
<event>
 5    1  0.1360042E-008  0.3743704E+03  0.7957747E-01  0.3476043E+00
         13   -1    0    0    0    0  0.00000000000E+00  0.00000000000E+00  0.14999999963E+04  0.15000000000E+04  0.10566000000E+00 0.  1.
        994   -1    0    0    0    0 -0.00000000000E+00 -0.00000000000E+00  0.11368683772E-12  0.17120000000E+03  0.17120000000E+03 0.  0.
         13    1    1    2    0    0 -0.53625184701E+02  0.64382350962E+02  0.17830057775E+03  0.19700724540E+03  0.10566000000E+00 0.  1.
        994    1    1    2    0    0  0.13630627633E+03 -0.64406283436E+02  0.99020501856E+02  0.24868065888E+03  0.17120000000E+03 0.  0.
        998    1    1    2    0    0 -0.82681091628E+02  0.23932473574E-01  0.12226789167E+04  0.12255120957E+04  0.10000000000E+02 0.  1.
</event>
<event>
 5    1  0.1360042E-008  0.3782525E+03  0.7957747E-01  0.3458803E+00
         13   -1    0    0    0    0  0.00000000000E+00  0.00000000000E+00  0.14999999963E+04  0.15000000000E+04  0.10566000000E+00 0. -1.
        994   -1    0    0    0    0 -0.00000000000E+00 -0.00000000000E+00  0.11368683772E-12  0.17120000000E+03  0.17120000000E+03 0.  0.
         13    1    1    2    0    0  0.57514142502E+01  0.22499160743E+02  0.10762592587E+02  0.25595616094E+02  0.10566000000E+00 0. -1.
        994    1    1    2    0    0 -0.17986595244E+02 -0.18203127031E+02  0.17731991995E+02  0.17400785897E+03  0.17120000000E+03 0.  0.
        998    1    1    2    0    0  0.12235180994E+02 -0.42960337118E+01  0.14715054117E+04  0.14715965249E+04  0.10000000000E+02 0. -1.
</event>
<event>
 5    1  0.1360042E-008  0.3822712E+03  0.7957747E-01  0.3441329E+00
         13   -1    0    0    0    0  0.00000000000E+00  0.00000000000E+00  0.14999999963E+04  0.15000000000E+04  0.10566000000E+00 0.  1.
        994   -1    0    0    0    0 -0.00000000000E+00 -0.00000000000E+00  0.11368683772E-12  0.17120000000E+03  0.17120000000E+03 0.  0.
         13    1    1    2    0    0 -0.25840350732E+02 -0.59734347197E+01  0.11618783127E+03  0.11917646139E+03  0.10566000000E+00 0.  1.
        994    1    1    2    0    0  0.15177575233E+02  0.86326575783E+01  0.40033027515E+01  0.17213467983E+03  0.17120000000E+03 0.  0.
        998    1    1    2    0    0  0.10662775499E+02 -0.26592228586E+01  0.13798088623E+04  0.13798888588E+04  0.10000000000E+02 0.  1.
</event>
<event>
 5    1  0.1360042E-008  0.3846915E+03  0.7957747E-01  0.3430982E+00
         13   -1    0    0    0    0  0.00000000000E+00  0.00000000000E+00  0.14999999963E+04  0.15000000000E+04  0.10566000000E+00 0. -1.
        994   -1    0    0    0    0 -0.00000000000E+00 -0.00000000000E+00  0.11368683772E-12  0.17120000000E+03  0.17120000000E+03 0.  0.
         13    1    1    2    0    0 -0.15743632379E+02 -0.48043750228E+01  0.79899229709E+02  0.81577215275E+02  0.10566000000E+00 0. -1.
        994    1    1    2    0    0  0.46652610764E+01 -0.48525189955E+01  0.19325669921E+01  0.17134318316E+03  0.17120000000E+03 0.  0.
        998    1    1    2    0    0  0.11078371302E+02  0.96568940183E+01  0.14181681996E+04  0.14182796016E+04  0.10000000000E+02 0. -1.
</event>
<event>
 5    1  0.1360042E-008  0.3839514E+03  0.7957747E-01  0.3434132E+00
         13   -1    0    0    0    0  0.00000000000E+00  0.00000000000E+00  0.14999999963E+04  0.15000000000E+04  0.10566000000E+00 0.  1.
        994   -1    0    0    0    0 -0.00000000000E+00 -0.00000000000E+00  0.11368683772E-12  0.17120000000E+03  0.17120000000E+03 0.  0.
         13    1    1    2    0    0 -0.20826021601E+02  0.11228571828E+02  0.11282500924E+03  0.11527921701E+03  0.10566000000E+00 0.  1.
        994    1    1    2    0    0  0.22785912035E+02 -0.30016902179E+02  0.68523041223E+01  0.17543262603E+03  0.17120000000E+03 0.  0.
        998    1    1    2    0    0 -0.19598904342E+01  0.18788330351E+02  0.13803226829E+04  0.13804881570E+04  0.10000000000E+02 0.  1.
</event>
<event>
 5    1  0.1360042E-008  0.3760582E+03  0.7957747E-01  0.3468504E+00
         13   -1    0    0    0    0  0.00000000000E+00  0.00000000000E+00  0.14999999963E+04  0.15000000000E+04  0.10566000000E+00 0.  1.
        994   -1    0    0    0    0 -0.00000000000E+00 -0.00000000000E+00  0.11368683772E-12  0.17120000000E+03  0.17120000000E+03 0.  0.
         13    1    1    2    0    0 -0.21171878259E+01 -0.13111991812E+02  0.11477896945E+02  0.17554489337E+02  0.10566000000E+00 0.  1.
        994    1    1    2    0    0  0.12391915782E+01  0.15739402787E+02  0.69810513071E+01  0.17206812451E+03  0.17120000000E+03 0.  0.
        998    1    1    2    0    0  0.87799624761E+00 -0.26274109755E+01  0.14815410480E+04  0.14815773862E+04  0.10000000000E+02 0.  1.
</event>
<event>
 5    1  0.1360042E-008  0.3702379E+03  0.7957747E-01  0.3494798E+00
         13   -1    0    0    0    0  0.00000000000E+00  0.00000000000E+00  0.14999999963E+04  0.15000000000E+04  0.10566000000E+00 0.  1.
        994   -1    0    0    0    0 -0.00000000000E+00 -0.00000000000E+00  0.11368683772E-12  0.17120000000E+03  0.17120000000E+03 0.  0.
         13    1    1    2    0    0  0.20456148397E+01 -0.12601632018E+02  0.46094629113E+01  0.13573650281E+02  0.10566000000E+00 0.  1.
        994    1    1    2    0    0  0.11421728144E+02  0.18768017495E+02  0.10814170384E+02  0.17294242000E+03  0.17120000000E+03 0.  0.
        998    1    1    2    0    0 -0.13467342984E+02 -0.61663854775E+01  0.14845763630E+04  0.14846839297E+04  0.10000000000E+02 0.  1.
</event>
<event>
 5    1  0.1360042E-008  0.3853956E+03  0.7957747E-01  0.3427996E+00
         13   -1    0    0    0    0  0.00000000000E+00  0.00000000000E+00  0.14999999963E+04  0.15000000000E+04  0.10566000000E+00 0.  1.
        994   -1    0    0    0    0 -0.00000000000E+00 -0.00000000000E+00  0.11368683772E-12  0.17120000000E+03  0.17120000000E+03 0.  0.
         13    1    1    2    0    0 -0.44322901046E+01 -0.15305318193E+02  0.92197051996E+02  0.93563911426E+02  0.10566000000E+00 0.  1.
        994    1    1    2    0    0  0.38475658500E+01  0.49099732545E+01  0.15616777074E+01  0.17132072390E+03  0.17120000000E+03 0.  0.
        998    1    1    2    0    0  0.58472425457E+00  0.10395344939E+02  0.14062412666E+04  0.14063153647E+04  0.10000000000E+02 0.  1.
</event>
<event>
 5    1  0.1360042E-008  0.3848289E+03  0.7957747E-01  0.3430398E+00
         13   -1    0    0    0    0  0.00000000000E+00  0.00000000000E+00  0.14999999963E+04  0.15000000000E+04  0.10566000000E+00 0. -1.
        994   -1    0    0    0    0 -0.00000000000E+00 -0.00000000000E+00  0.11368683772E-12  0.17120000000E+03  0.17120000000E+03 0.  0.
         13    1    1    2    0    0  0.16522017649E+02 -0.88107740449E+01  0.10659750694E+03  0.10822960065E+03  0.10566000000E+00 0. -1.
        994    1    1    2    0    0 -0.42264420911E+01  0.60791050176E+01  0.18955323004E+01  0.17137050905E+03  0.17120000000E+03 0.  0.
        998    1    1    2    0    0 -0.12295575558E+02  0.27316690273E+01  0.13915069570E+04  0.13915998903E+04  0.10000000000E+02 0. -1.
</event>
<event>
 5    1  0.1360042E-008  0.3774542E+03  0.7957747E-01  0.3462319E+00
         13   -1    0    0    0    0  0.00000000000E+00  0.00000000000E+00  0.14999999963E+04  0.15000000000E+04  0.10566000000E+00 0. -1.
        994   -1    0    0    0    0 -0.00000000000E+00 -0.00000000000E+00  0.11368683772E-12  0.17120000000E+03  0.17120000000E+03 0.  0.
         13    1    1    2    0    0 -0.17062189111E+02  0.24389302802E+02  0.82441882095E+02  0.87650621651E+02  0.10566000000E+00 0. -1.
        994    1    1    2    0    0  0.14885206733E+02 -0.24395179512E+01  0.61911919676E+01  0.17197468269E+03  0.17120000000E+03 0.  0.
        998    1    1    2    0    0  0.21769823784E+01 -0.21949784851E+02  0.14113669222E+04  0.14115746957E+04  0.10000000000E+02 0. -1.
</event>
<event>
 5    1  0.1360042E-008  0.3854565E+03  0.7957747E-01  0.3427738E+00
         13   -1    0    0    0    0  0.00000000000E+00  0.00000000000E+00  0.14999999963E+04  0.15000000000E+04  0.10566000000E+00 0.  1.
        994   -1    0    0    0    0 -0.00000000000E+00 -0.00000000000E+00  0.11368683772E-12  0.17120000000E+03  0.17120000000E+03 0.  0.
         13    1    1    2    0    0 -0.12657795400E+02  0.10198439054E+02  0.95720824935E+02  0.97091273726E+02  0.10566000000E+00 0.  1.
        994    1    1    2    0    0  0.30025196812E+00 -0.14269610381E+02  0.20728913889E+01  0.17180642832E+03  0.17120000000E+03 0.  0.
        998    1    1    2    0    0  0.12357543432E+02  0.40711713270E+01  0.14022062800E+04  0.14023022980E+04  0.10000000000E+02 0.  1.
</event>
<event>
 5    1  0.1360042E-008  0.3835505E+03  0.7957747E-01  0.3435843E+00
         13   -1    0    0    0    0  0.00000000000E+00  0.00000000000E+00  0.14999999963E+04  0.15000000000E+04  0.10566000000E+00 0. -1.
        994   -1    0    0    0    0 -0.00000000000E+00 -0.00000000000E+00  0.11368683772E-12  0.17120000000E+03  0.17120000000E+03 0.  0.
         13    1    1    2    0    0 -0.95375835005E+01 -0.10930733074E+02  0.42468970168E+02  0.44878402553E+02  0.10566000000E+00 0. -1.
        994    1    1    2    0    0 -0.31757996940E+01  0.27331325844E+02  0.48570841333E+01  0.17346503493E+03  0.17120000000E+03 0.  0.
        998    1    1    2    0    0  0.12713383195E+02 -0.16400592769E+02  0.14526739420E+04  0.14528565625E+04  0.10000000000E+02 0. -1.
</event>
<event>
 5    1  0.1360042E-008  0.3842799E+03  0.7957747E-01  0.3432732E+00
         13   -1    0    0    0    0  0.00000000000E+00  0.00000000000E+00  0.14999999963E+04  0.15000000000E+04  0.10566000000E+00 0. -1.
        994   -1    0    0    0    0 -0.00000000000E+00 -0.00000000000E+00  0.11368683772E-12  0.17120000000E+03  0.17120000000E+03 0.  0.
         13    1    1    2    0    0  0.15935452508E+02  0.98511219035E+01  0.84060231631E+02  0.86122685486E+02  0.10566000000E+00 0. -1.
        994    1    1    2    0    0 -0.14975484697E+02 -0.11818059470E+02  0.31886520693E+01  0.17228911508E+03  0.17120000000E+03 0.  0.
        998    1    1    2    0    0 -0.95996781056E+00  0.19669375664E+01  0.14127511126E+04  0.14127881994E+04  0.10000000000E+02 0. -1.
</event>
<event>
 5    1  0.1360042E-008  0.3825842E+03  0.7957747E-01  0.3439983E+00
         13   -1    0    0    0    0  0.00000000000E+00  0.00000000000E+00  0.14999999963E+04  0.15000000000E+04  0.10566000000E+00 0.  1.
        994   -1    0    0    0    0 -0.00000000000E+00 -0.00000000000E+00  0.11368683772E-12  0.17120000000E+03  0.17120000000E+03 0.  0.
         13    1    1    2    0    0 -0.13844802047E+02  0.25329740407E+02  0.14403087261E+03  0.14689512491E+03  0.10566000000E+00 0.  1.
        994    1    1    2    0    0  0.10373077373E+02 -0.16196433458E+02  0.40614091431E+01  0.17232486830E+03  0.17120000000E+03 0.  0.
        998    1    1    2    0    0  0.34717246734E+01 -0.91333069495E+01  0.13519077145E+04  0.13519800068E+04  0.10000000000E+02 0.  1.
</event>
<event>
 5    1  0.1360042E-008  0.3847353E+03  0.7957747E-01  0.3430796E+00
         13   -1    0    0    0    0  0.00000000000E+00  0.00000000000E+00  0.14999999963E+04  0.15000000000E+04  0.10566000000E+00 0. -1.
        994   -1    0    0    0    0 -0.00000000000E+00 -0.00000000000E+00  0.11368683772E-12  0.17120000000E+03  0.17120000000E+03 0.  0.
         13    1    1    2    0    0 -0.15051528315E+02  0.16113946566E+02  0.12390272165E+03  0.12584952672E+03  0.10566000000E+00 0. -1.
        994    1    1    2    0    0  0.18229022946E+02 -0.19305227687E+02  0.40855293933E+01  0.17329489503E+03  0.17120000000E+03 0.  0.
        998    1    1    2    0    0 -0.31774946303E+01  0.31912811213E+01  0.13720117452E+04  0.13720555783E+04  0.10000000000E+02 0. -1.
</event>
<event>
 5    1  0.1360042E-008  0.3800171E+03  0.7957747E-01  0.3451084E+00
         13   -1    0    0    0    0  0.00000000000E+00  0.00000000000E+00  0.14999999963E+04  0.15000000000E+04  0.10566000000E+00 0. -1.
        994   -1    0    0    0    0 -0.00000000000E+00 -0.00000000000E+00  0.11368683772E-12  0.17120000000E+03  0.17120000000E+03 0.  0.
         13    1    1    2    0    0 -0.20345041973E+02  0.19914881956E+02  0.91922093623E+02  0.96229962675E+02  0.10566000000E+00 0. -1.
        994    1    1    2    0    0  0.18105607688E+02 -0.21527649539E+02  0.67739666424E+01  0.17362770329E+03  0.17120000000E+03 0.  0.
        998    1    1    2    0    0  0.22394342857E+01  0.16127675827E+01  0.14013039360E+04  0.14013423340E+04  0.10000000000E+02 0. -1.
</event>
<event>
 5    1  0.1360042E-008  0.3849039E+03  0.7957747E-01  0.3430080E+00
         13   -1    0    0    0    0  0.00000000000E+00  0.00000000000E+00  0.14999999963E+04  0.15000000000E+04  0.10566000000E+00 0.  1.
        994   -1    0    0    0    0 -0.00000000000E+00 -0.00000000000E+00  0.11368683772E-12  0.17120000000E+03  0.17120000000E+03 0.  0.
         13    1    1    2    0    0 -0.14547933662E+02  0.96181230174E+01  0.90737215250E+02  0.92398073896E+02  0.10566000000E+00 0.  1.
        994    1    1    2    0    0  0.10689965740E+02 -0.38997900951E+01  0.21039415730E+01  0.17159064747E+03  0.17120000000E+03 0.  0.
        998    1    1    2    0    0  0.38579679224E+01 -0.57183329224E+01  0.14071588395E+04  0.14072112786E+04  0.10000000000E+02 0.  1.
</event>
<event>
 5    1  0.1360042E-008  0.3800433E+03  0.7957747E-01  0.3450970E+00
         13   -1    0    0    0    0  0.00000000000E+00  0.00000000000E+00  0.14999999963E+04  0.15000000000E+04  0.10566000000E+00 0.  1.
        994   -1    0    0    0    0 -0.00000000000E+00 -0.00000000000E+00  0.11368683772E-12  0.17120000000E+03  0.17120000000E+03 0.  0.
         13    1    1    2    0    0 -0.14940109408E+01 -0.18560723457E+02  0.40067722919E+02  0.44183323866E+02  0.10566000000E+00 0.  1.
        994    1    1    2    0    0  0.26216264910E+01  0.16052205664E+02  0.49960050673E+01  0.17204344306E+03  0.17120000000E+03 0.  0.
        998    1    1    2    0    0 -0.11276155502E+01  0.25085177925E+01  0.14549362683E+04  0.14549732331E+04  0.10000000000E+02 0.  1.
</event>
<event>
 5    1  0.1360042E-008  0.3814469E+03  0.7957747E-01  0.3444882E+00
         13   -1    0    0    0    0  0.00000000000E+00  0.00000000000E+00  0.14999999963E+04  0.15000000000E+04  0.10566000000E+00 0.  1.
        994   -1    0    0    0    0 -0.00000000000E+00 -0.00000000000E+00  0.11368683772E-12  0.17120000000E+03  0.17120000000E+03 0.  0.
         13    1    1    2    0    0 -0.20604508207E+02 -0.20835819252E+02  0.13186985759E+03  0.13508644502E+03  0.10566000000E+00 0.  1.
        994    1    1    2    0    0  0.13911171951E+01  0.11774805788E+02  0.38723733682E+01  0.17165376936E+03  0.17120000000E+03 0.  0.
        998    1    1    2    0    0  0.19213391012E+02  0.90610134637E+01  0.13642577653E+04  0.13644597856E+04  0.10000000000E+02 0.  1.
</event>
<event>
 5    1  0.1360042E-008  0.3809294E+03  0.7957747E-01  0.3447121E+00
         13   -1    0    0    0    0  0.00000000000E+00  0.00000000000E+00  0.14999999963E+04  0.15000000000E+04  0.10566000000E+00 0. -1.
        994   -1    0    0    0    0 -0.00000000000E+00 -0.00000000000E+00  0.11368683772E-12  0.17120000000E+03  0.17120000000E+03 0.  0.
         13    1    1    2    0    0  0.45914933636E+01 -0.11019157576E+02  0.17690596662E+02  0.21341790443E+02  0.10566000000E+00 0. -1.
        994    1    1    2    0    0 -0.43274677921E+01  0.12570317639E+02  0.42539429336E+01  0.17176808753E+03  0.17120000000E+03 0.  0.
        998    1    1    2    0    0 -0.26402557149E+00 -0.15511600627E+01  0.14780554567E+04  0.14780901220E+04  0.10000000000E+02 0. -1.
</event>
<event>
 5    1  0.1360042E-008  0.3782668E+03  0.7957747E-01  0.3458740E+00
         13   -1    0    0    0    0  0.00000000000E+00  0.00000000000E+00  0.14999999963E+04  0.15000000000E+04  0.10566000000E+00 0.  1.
        994   -1    0    0    0    0 -0.00000000000E+00 -0.00000000000E+00  0.11368683772E-12  0.17120000000E+03  0.17120000000E+03 0.  0.
         13    1    1    2    0    0  0.16402171257E+02 -0.44185769976E+02  0.21932654208E+03  0.22433358357E+03  0.10566000000E+00 0.  1.
        994    1    1    2    0    0  0.18640267352E+02  0.37621193319E+02  0.10960498816E+02  0.17661366393E+03  0.17120000000E+03 0.  0.
        998    1    1    2    0    0 -0.35042438609E+02  0.65645766568E+01  0.12697129554E+04  0.12702527525E+04  0.10000000000E+02 0.  1.
</event>
<event>
 5    1  0.1360042E-008  0.3798981E+03  0.7957747E-01  0.3451602E+00
         13   -1    0    0    0    0  0.00000000000E+00  0.00000000000E+00  0.14999999963E+04  0.15000000000E+04  0.10566000000E+00 0.  1.
        994   -1    0    0    0    0 -0.00000000000E+00 -0.00000000000E+00  0.11368683772E-12  0.17120000000E+03  0.17120000000E+03 0.  0.
         13    1    1    2    0    0 -0.10146545684E+02  0.19642174865E+02  0.56145181642E+02  0.60341196611E+02  0.10566000000E+00 0.  1.
        994    1    1    2    0    0  0.38127147153E+00 -0.19504384375E+02  0.54582371649E+01  0.17239431177E+03  0.17120000000E+03 0.  0.
        998    1    1    2    0    0  0.97652742129E+01 -0.13779048988E+00  0.14383965775E+04  0.14384644916E+04  0.10000000000E+02 0.  1.
</event>
<event>
 5    1  0.1360042E-008  0.3836357E+03  0.7957747E-01  0.3435479E+00
         13   -1    0    0    0    0  0.00000000000E+00  0.00000000000E+00  0.14999999963E+04  0.15000000000E+04  0.10566000000E+00 0. -1.
        994   -1    0    0    0    0 -0.00000000000E+00 -0.00000000000E+00  0.11368683772E-12  0.17120000000E+03  0.17120000000E+03 0.  0.
         13    1    1    2    0    0  0.27209704223E+02  0.18082652854E+02  0.15044992532E+03  0.15395629747E+03  0.10566000000E+00 0. -1.
        994    1    1    2    0    0 -0.98730164220E+02  0.36157781076E+01  0.35247570720E+02  0.20077985561E+03  0.17120000000E+03 0.  0.
        998    1    1    2    0    0  0.71520459996E+02 -0.21698430961E+02  0.13143025002E+04  0.13164638469E+04  0.10000000000E+02 0. -1.
</event>
<event>
 5    1  0.1360042E-008  0.3833025E+03  0.7957747E-01  0.3436904E+00
         13   -1    0    0    0    0  0.00000000000E+00  0.00000000000E+00  0.14999999963E+04  0.15000000000E+04  0.10566000000E+00 0.  1.
        994   -1    0    0    0    0 -0.00000000000E+00 -0.00000000000E+00  0.11368683772E-12  0.17120000000E+03  0.17120000000E+03 0.  0.
         13    1    1    2    0    0 -0.10238235687E+03  0.18845763679E+03  0.11674482092E+04  0.11869851559E+04  0.10566000000E+00 0.  1.
        994    1    1    2    0    0  0.10046621887E+03 -0.18886679519E+03  0.17236104794E+03  0.32370032176E+03  0.17120000000E+03 0.  0.
        998    1    1    2    0    0  0.19161380090E+01  0.40915840593E+00  0.16019073911E+03  0.16051452237E+03  0.10000000000E+02 0.  0.
</event>
<event>
 5    1  0.1360042E-008  0.3844064E+03  0.7957747E-01  0.3432193E+00
         13   -1    0    0    0    0  0.00000000000E+00  0.00000000000E+00  0.14999999963E+04  0.15000000000E+04  0.10566000000E+00 0. -1.
        994   -1    0    0    0    0 -0.00000000000E+00 -0.00000000000E+00  0.11368683772E-12  0.17120000000E+03  0.17120000000E+03 0.  0.
         13    1    1    2    0    0  0.18147288280E+02  0.53918117607E-01  0.96136409862E+02  0.97834285628E+02  0.10566000000E+00 0. -1.
        994    1    1    2    0    0  0.47437848424E+01  0.77593127947E+01  0.21976960342E+01  0.17145547614E+03  0.17120000000E+03 0.  0.
        998    1    1    2    0    0 -0.22891073122E+02 -0.78132309123E+01  0.14016658904E+04  0.14019102382E+04  0.10000000000E+02 0. -1.
</event>
<event>
 5    1  0.1360042E-008  0.3793609E+03  0.7957747E-01  0.3453946E+00
         13   -1    0    0    0    0  0.00000000000E+00  0.00000000000E+00  0.14999999963E+04  0.15000000000E+04  0.10566000000E+00 0. -1.
        994   -1    0    0    0    0 -0.00000000000E+00 -0.00000000000E+00  0.11368683772E-12  0.17120000000E+03  0.17120000000E+03 0.  0.
         13    1    1    2    0    0 -0.15362273990E+02  0.11475858898E+01  0.24355755452E+02  0.28818924393E+02  0.10566000000E+00 0. -1.
        994    1    1    2    0    0  0.16677841494E+02 -0.57239013279E+01  0.54983388884E+01  0.17219345276E+03  0.17120000000E+03 0.  0.
        998    1    1    2    0    0 -0.13155675037E+01  0.45763154380E+01  0.14701459019E+04  0.14701876228E+04  0.10000000000E+02 0. -1.
</event>
<event>
 5    1  0.1360042E-008  0.3813469E+03  0.7957747E-01  0.3445315E+00
         13   -1    0    0    0    0  0.00000000000E+00  0.00000000000E+00  0.14999999963E+04  0.15000000000E+04  0.10566000000E+00 0. -1.
        994   -1    0    0    0    0 -0.00000000000E+00 -0.00000000000E+00  0.11368683772E-12  0.17120000000E+03  0.17120000000E+03 0.  0.
         13    1    1    2    0    0  0.11516041094E+02  0.25652123360E+02  0.11910175286E+03  0.12237601617E+03  0.10566000000E+00 0. -1.
        994    1    1    2    0    0 -0.28296238597E+02  0.21951447822E+01  0.61401608109E+01  0.17364514780E+03  0.17120000000E+03 0.  0.
        998    1    1    2    0    0  0.16780197503E+02 -0.27847268142E+02  0.13747580826E+04  0.13751788360E+04  0.10000000000E+02 0. -1.
</event>
<event>
 5    1  0.1432211E-008  0.3860649E+03  0.7957747E-01  0.3425168E+00
         13   -1    0    0    0    0  0.00000000000E+00  0.00000000000E+00  0.14999999963E+04  0.15000000000E+04  0.10566000000E+00 0.  1.
        994   -1    0    0    0    0 -0.00000000000E+00 -0.00000000000E+00  0.11368683772E-12  0.17120000000E+03  0.17120000000E+03 0.  0.
         13    1    1    2    0    0 -0.67567759454E+01 -0.75562804627E+01  0.48700710016E+02  0.49744564685E+02  0.10566000000E+00 0.  1.
        994    1    1    2    0    0 -0.15765417219E+01  0.43209370427E+01  0.11716666966E+01  0.17126578404E+03  0.17120000000E+03 0.  0.
        998    1    1    2    0    0  0.83333176673E+01  0.32353434200E+01  0.14501276196E+04  0.14501896513E+04  0.10000000000E+02 0.  1.
</event>
<event>
 5    1  0.1360042E-008  0.3752986E+03  0.7957747E-01  0.3471888E+00
         13   -1    0    0    0    0  0.00000000000E+00  0.00000000000E+00  0.14999999963E+04  0.15000000000E+04  0.10566000000E+00 0.  1.
        994   -1    0    0    0    0 -0.00000000000E+00 -0.00000000000E+00  0.11368683772E-12  0.17120000000E+03  0.17120000000E+03 0.  0.
         13    1    1    2    0    0  0.41708657796E+02 -0.36524418047E+02  0.30083923231E+03  0.30590505081E+03  0.10566000000E+00 0.  1.
        994    1    1    2    0    0  0.50577274071E+01  0.57365178433E+01  0.67241060558E+01  0.17150260011E+03  0.17120000000E+03 0.  0.
        998    1    1    2    0    0 -0.46766385203E+02  0.30787900204E+02  0.11924366579E+04  0.11937923491E+04  0.10000000000E+02 0.  1.
</event>
<event>
 5    1  0.1360042E-008  0.3984278E+03  0.7957747E-01  0.3374646E+00
         13   -1    0    0    0    0  0.00000000000E+00  0.00000000000E+00  0.14999999963E+04  0.15000000000E+04  0.10566000000E+00 0.  1.
        994   -1    0    0    0    0 -0.00000000000E+00 -0.00000000000E+00  0.11368683772E-12  0.17120000000E+03  0.17120000000E+03 0.  0.
         13    1    1    2    0    0 -0.45691554585E+02  0.46399535594E+02  0.10444822604E+03  0.12308565372E+03  0.10566000000E+00 0.  1.
        994    1    1    2    0    0 -0.75499514054E+00  0.14456959903E+03  0.11375231611E+03  0.25129657459E+03  0.17120000000E+03 0.  0.
        998    1    1    2    0    0  0.46446549725E+02 -0.19096913463E+03  0.12817994541E+04  0.12968177717E+04  0.10000000000E+02 0.  1.
</event>
<event>
 5    1  0.1360042E-008  0.3837347E+03  0.7957747E-01  0.3435056E+00
         13   -1    0    0    0    0  0.00000000000E+00  0.00000000000E+00  0.14999999963E+04  0.15000000000E+04  0.10566000000E+00 0. -1.
        994   -1    0    0    0    0 -0.00000000000E+00 -0.00000000000E+00  0.11368683772E-12  0.17120000000E+03  0.17120000000E+03 0.  0.
         13    1    1    2    0    0 -0.91104065678E+01 -0.42684114295E+01  0.21605927536E+02  0.23833717979E+02  0.10566000000E+00 0. -1.
        994    1    1    2    0    0  0.68739436645E+01  0.30424922046E+01  0.24462813113E+01  0.17138241495E+03  0.17120000000E+03 0.  0.
        998    1    1    2    0    0  0.22364629033E+01  0.12259192249E+01  0.14759477874E+04  0.14759838671E+04  0.10000000000E+02 0. -1.
</event>
<event>
 5    1  0.1360042E-008  0.3802054E+03  0.7957747E-01  0.3450265E+00
         13   -1    0    0    0    0  0.00000000000E+00  0.00000000000E+00  0.14999999963E+04  0.15000000000E+04  0.10566000000E+00 0. -1.
        994   -1    0    0    0    0 -0.00000000000E+00 -0.00000000000E+00  0.11368683772E-12  0.17120000000E+03  0.17120000000E+03 0.  0.
         13    1    1    2    0    0  0.24207506127E+02  0.23664240893E+01  0.66677023043E+02  0.70974924317E+02  0.10566000000E+00 0. -1.
        994    1    1    2    0    0 -0.33806391777E+02  0.41053151461E+01  0.79134634656E+01  0.17473347888E+03  0.17120000000E+03 0.  0.
        998    1    1    2    0    0  0.95988856498E+01 -0.64717392354E+01  0.14254095098E+04  0.14254915968E+04  0.10000000000E+02 0. -1.
</event>
<event>
 5    1  0.1360042E-008  0.3723117E+03  0.7957747E-01  0.3485334E+00
         13   -1    0    0    0    0  0.00000000000E+00  0.00000000000E+00  0.14999999963E+04  0.15000000000E+04  0.10566000000E+00 0.  1.
        994   -1    0    0    0    0 -0.00000000000E+00 -0.00000000000E+00  0.11368683772E-12  0.17120000000E+03  0.17120000000E+03 0.  0.
         13    1    1    2    0    0  0.30941287232E+02  0.76028266320E+02  0.34377020746E+03  0.35343404935E+03  0.10566000000E+00 0.  1.
        994    1    1    2    0    0 -0.28706933143E+02 -0.66649776539E+02  0.26352818561E+02  0.18780359893E+03  0.17120000000E+03 0.  0.
        998    1    1    2    0    0 -0.22343540887E+01 -0.93784897810E+01  0.11298769703E+04  0.11299623517E+04  0.10000000000E+02 0.  1.
</event>
<event>
 5    1  0.1360042E-008  0.3784212E+03  0.7957747E-01  0.3458062E+00
         13   -1    0    0    0    0  0.00000000000E+00  0.00000000000E+00  0.14999999963E+04  0.15000000000E+04  0.10566000000E+00 0. -1.
        994   -1    0    0    0    0 -0.00000000000E+00 -0.00000000000E+00  0.11368683772E-12  0.17120000000E+03  0.17120000000E+03 0.  0.
         13    1    1    2    0    0  0.12561493652E+01  0.12838203611E+02  0.15102291997E+02  0.19861716210E+02  0.10566000000E+00 0. -1.
        994    1    1    2    0    0 -0.63120822233E+01  0.20065634440E+01  0.50796577057E+01  0.17140335936E+03  0.17120000000E+03 0.  0.
        998    1    1    2    0    0  0.50559328582E+01 -0.14844767055E+02  0.14798180466E+04  0.14799349244E+04  0.10000000000E+02 0. -1.
</event>
<event>
 5    1  0.1360042E-008  0.3783738E+03  0.7957747E-01  0.3458270E+00
         13   -1    0    0    0    0  0.00000000000E+00  0.00000000000E+00  0.14999999963E+04  0.15000000000E+04  0.10566000000E+00 0. -1.
        994   -1    0    0    0    0 -0.00000000000E+00 -0.00000000000E+00  0.11368683772E-12  0.17120000000E+03  0.17120000000E+03 0.  0.
         13    1    1    2    0    0  0.86494373999E+01 -0.21566963240E+02  0.77436134356E+02  0.80847465877E+02  0.10566000000E+00 0. -1.
        994    1    1    2    0    0 -0.34218310850E+02 -0.88761867414E+02  0.36000487368E+02  0.19913572506E+03  0.17120000000E+03 0.  0.
        998    1    1    2    0    0  0.25568873450E+02  0.11032883065E+03  0.13865633746E+04  0.13912168091E+04  0.10000000000E+02 0. -1.
</event>
<event>
 5    1  0.1360042E-008  0.3778119E+03  0.7957747E-01  0.3460742E+00
         13   -1    0    0    0    0  0.00000000000E+00  0.00000000000E+00  0.14999999963E+04  0.15000000000E+04  0.10566000000E+00 0. -1.
        994   -1    0    0    0    0 -0.00000000000E+00 -0.00000000000E+00  0.11368683772E-12  0.17120000000E+03  0.17120000000E+03 0.  0.
         13    1    1    2    0    0  0.11589780870E+02 -0.67388413963E+00  0.10415618909E+02  0.15597224809E+02  0.10566000000E+00 0. -1.
        994    1    1    2    0    0 -0.12574552223E+02 -0.78943410424E+00  0.57765013007E+01  0.17176015410E+03  0.17120000000E+03 0.  0.
        998    1    1    2    0    0  0.98477135294E+00  0.14633182439E+01  0.14838078761E+04  0.14838426211E+04  0.10000000000E+02 0. -1.
</event>
<event>
 5    1  0.1360042E-008  0.3741431E+03  0.7957747E-01  0.3477064E+00
         13   -1    0    0    0    0  0.00000000000E+00  0.00000000000E+00  0.14999999963E+04  0.15000000000E+04  0.10566000000E+00 0.  1.
        994   -1    0    0    0    0 -0.00000000000E+00 -0.00000000000E+00  0.11368683772E-12  0.17120000000E+03  0.17120000000E+03 0.  0.
         13    1    1    2    0    0 -0.17050779374E+02  0.11957869279E+02  0.28048830190E+02  0.34935193631E+02  0.10566000000E+00 0.  1.
        994    1    1    2    0    0  0.28083017282E+01 -0.78203004424E+01  0.73548429608E+01  0.17155925324E+03  0.17120000000E+03 0.  0.
        998    1    1    2    0    0  0.14242477646E+02 -0.41375688364E+01  0.14645963231E+04  0.14647055531E+04  0.10000000000E+02 0.  1.
</event>
<event>
 5    1  0.1360042E-008  0.3800482E+03  0.7957747E-01  0.3450949E+00
         13   -1    0    0    0    0  0.00000000000E+00  0.00000000000E+00  0.14999999963E+04  0.15000000000E+04  0.10566000000E+00 0. -1.
        994   -1    0    0    0    0 -0.00000000000E+00 -0.00000000000E+00  0.11368683772E-12  0.17120000000E+03  0.17120000000E+03 0.  0.
         13    1    1    2    0    0  0.15411700792E+02 -0.12004936218E+02  0.43416133092E+02  0.47608936048E+02  0.10566000000E+00 0. -1.
        994    1    1    2    0    0 -0.44621311779E+01  0.30638855257E+02  0.73196198338E+01  0.17413117728E+03  0.17120000000E+03 0.  0.
        998    1    1    2    0    0 -0.10949569614E+02 -0.18633919039E+02  0.14492642434E+04  0.14494598867E+04  0.10000000000E+02 0. -1.
</event>
<event>
 5    1  0.1360042E-008  0.3806842E+03  0.7957747E-01  0.3448185E+00
         13   -1    0    0    0    0  0.00000000000E+00  0.00000000000E+00  0.14999999963E+04  0.15000000000E+04  0.10566000000E+00 0.  1.
        994   -1    0    0    0    0 -0.00000000000E+00 -0.00000000000E+00  0.11368683772E-12  0.17120000000E+03  0.17120000000E+03 0.  0.
         13    1    1    2    0    0 -0.22135119492E+02  0.20882235540E+02  0.14043756931E+03  0.14369674079E+03  0.10566000000E+00 0.  1.
        994    1    1    2    0    0 -0.11770490959E+01  0.57534017573E+01  0.39032187490E+01  0.17134515515E+03  0.17120000000E+03 0.  0.
        998    1    1    2    0    0  0.23312168588E+02 -0.26635637298E+02  0.13556592082E+04  0.13561581041E+04  0.10000000000E+02 0.  1.
</event>
<event>
 5    1  0.1360042E-008  0.3828626E+03  0.7957747E-01  0.3438788E+00
         13   -1    0    0    0    0  0.00000000000E+00  0.00000000000E+00  0.14999999963E+04  0.15000000000E+04  0.10566000000E+00 0. -1.
        994   -1    0    0    0    0 -0.00000000000E+00 -0.00000000000E+00  0.11368683772E-12  0.17120000000E+03  0.17120000000E+03 0.  0.
         13    1    1    2    0    0  0.17711283388E+02 -0.19525951364E+01  0.59419773804E+02  0.62034046055E+02  0.10566000000E+00 0. -1.
        994    1    1    2    0    0 -0.85704125529E+01 -0.13138055887E+02  0.35103263133E+01  0.17195296704E+03  0.17120000000E+03 0.  0.
        998    1    1    2    0    0 -0.91408708354E+01  0.15090651024E+02  0.14370698962E+04  0.14372129869E+04  0.10000000000E+02 0. -1.
</event>
<event>
 5    1  0.1360042E-008  0.3815381E+03  0.7957747E-01  0.3444488E+00
         13   -1    0    0    0    0  0.00000000000E+00  0.00000000000E+00  0.14999999963E+04  0.15000000000E+04  0.10566000000E+00 0. -1.
        994   -1    0    0    0    0 -0.00000000000E+00 -0.00000000000E+00  0.11368683772E-12  0.17120000000E+03  0.17120000000E+03 0.  0.
         13    1    1    2    0    0  0.13119791648E+02  0.43241895618E+01 -0.23531229240E+01  0.14013418561E+02  0.10566000000E+00 0. -1.
        994    1    1    2    0    0 -0.14335468554E+02 -0.47350246216E+01  0.18005796561E+02  0.17280501968E+03  0.17120000000E+03 0.  0.
        998    1    1    2    0    0  0.12156769067E+01  0.41083505979E+00  0.14843473226E+04  0.14843815618E+04  0.10000000000E+02 0. -1.
</event>
<event>
 5    1  0.1360042E-008  0.3785452E+03  0.7957747E-01  0.3457518E+00
         13   -1    0    0    0    0  0.00000000000E+00  0.00000000000E+00  0.14999999963E+04  0.15000000000E+04  0.10566000000E+00 0.  1.
        994   -1    0    0    0    0 -0.00000000000E+00 -0.00000000000E+00  0.11368683772E-12  0.17120000000E+03  0.17120000000E+03 0.  0.
         13    1    1    2    0    0 -0.32421695958E+02  0.50117017556E+02  0.29909937804E+03  0.30499726380E+03  0.10566000000E+00 0.  1.
        994    1    1    2    0    0  0.37109598553E+02 -0.44462832930E+02  0.16219692476E+02  0.18145683851E+03  0.17120000000E+03 0.  0.
        998    1    1    2    0    0 -0.46879025952E+01 -0.56541846261E+01  0.11846809258E+04  0.11847458977E+04  0.10000000000E+02 0.  1.
</event>
<event>
 5    1  0.1360042E-008  0.3854641E+03  0.7957747E-01  0.3427706E+00
         13   -1    0    0    0    0  0.00000000000E+00  0.00000000000E+00  0.14999999963E+04  0.15000000000E+04  0.10566000000E+00 0.  1.
        994   -1    0    0    0    0 -0.00000000000E+00 -0.00000000000E+00  0.11368683772E-12  0.17120000000E+03  0.17120000000E+03 0.  0.
         13    1    1    2    0    0  0.10927653968E+02  0.10019787441E+02  0.83408236242E+02  0.84715729346E+02  0.10566000000E+00 0.  1.
        994    1    1    2    0    0  0.94379269359E+00 -0.47991201591E+01  0.14784778099E+01  0.17127623360E+03  0.17120000000E+03 0.  0.
        998    1    1    2    0    0 -0.11871446661E+02 -0.52206672819E+01  0.14151132822E+04  0.14152080371E+04  0.10000000000E+02 0.  1.
</event>
<event>
 5    1  0.1360042E-008  0.3752430E+03  0.7957747E-01  0.3472137E+00
         13   -1    0    0    0    0  0.00000000000E+00  0.00000000000E+00  0.14999999963E+04  0.15000000000E+04  0.10566000000E+00 0.  1.
        994   -1    0    0    0    0 -0.00000000000E+00 -0.00000000000E+00  0.11368683772E-12  0.17120000000E+03  0.17120000000E+03 0.  0.
         13    1    1    2    0    0 -0.22541234275E+02  0.69288734323E+01  0.38416636183E+02  0.45077329439E+02  0.10566000000E+00 0.  1.
        994    1    1    2    0    0  0.27226127439E+02 -0.67204413244E+01  0.92296349825E+01  0.17372694814E+03  0.17120000000E+03 0.  0.
        998    1    1    2    0    0 -0.46848931642E+01 -0.20843210796E+00  0.14523537251E+04  0.14523957224E+04  0.10000000000E+02 0.  1.
</event>
<event>
 5    1  0.1360042E-008  0.3759189E+03  0.7957747E-01  0.3469123E+00
         13   -1    0    0    0    0  0.00000000000E+00  0.00000000000E+00  0.14999999963E+04  0.15000000000E+04  0.10566000000E+00 0.  1.
        994   -1    0    0    0    0 -0.00000000000E+00 -0.00000000000E+00  0.11368683772E-12  0.17120000000E+03  0.17120000000E+03 0.  0.
         13    1    1    2    0    0 -0.55287469233E+02 -0.17796272138E+00  0.25190259258E+03  0.25789855222E+03  0.10566000000E+00 0.  1.
        994    1    1    2    0    0  0.29867314217E+02  0.45142094289E+02  0.16201430718E+02  0.18028253241E+03  0.17120000000E+03 0.  0.
        998    1    1    2    0    0  0.25420155016E+02 -0.44964131568E+02  0.12318959730E+04  0.12330189154E+04  0.10000000000E+02 0.  1.
</event>
<event>
 5    1  0.1360042E-008  0.3765300E+03  0.7957747E-01  0.3466408E+00
         13   -1    0    0    0    0  0.00000000000E+00  0.00000000000E+00  0.14999999963E+04  0.15000000000E+04  0.10566000000E+00 0.  1.
        994   -1    0    0    0    0 -0.00000000000E+00 -0.00000000000E+00  0.11368683772E-12  0.17120000000E+03  0.17120000000E+03 0.  0.
         13    1    1    2    0    0  0.81150976644E+01  0.32484229106E+02  0.88624616968E+02  0.94738660786E+02  0.10566000000E+00 0.  1.
        994    1    1    2    0    0 -0.17740319120E+02 -0.28647388330E+02  0.97443688892E+01  0.17475635755E+03  0.17120000000E+03 0.  0.
        998    1    1    2    0    0  0.96252214554E+01 -0.38368407761E+01  0.14016310104E+04  0.14017049817E+04  0.10000000000E+02 0.  1.
</event>
<event>
 5    1  0.1360042E-008  0.3858845E+03  0.7957747E-01  0.3425930E+00
         13   -1    0    0    0    0  0.00000000000E+00  0.00000000000E+00  0.14999999963E+04  0.15000000000E+04  0.10566000000E+00 0.  1.
        994   -1    0    0    0    0 -0.00000000000E+00 -0.00000000000E+00  0.11368683772E-12  0.17120000000E+03  0.17120000000E+03 0.  0.
         13    1    1    2    0    0 -0.69884584719E+01  0.84632498867E+01  0.49537610768E+02  0.50739050002E+02  0.10566000000E+00 0.  1.
        994    1    1    2    0    0  0.33672468335E+01 -0.12906322340E+02  0.17752797294E+01  0.17172799168E+03  0.17120000000E+03 0.  0.
        998    1    1    2    0    0  0.36212116383E+01  0.44430724530E+01  0.14486871058E+04  0.14487329583E+04  0.10000000000E+02 0.  1.
</event>
<event>
 5    1  0.1360042E-008  0.3766144E+03  0.7957747E-01  0.3466034E+00
         13   -1    0    0    0    0  0.00000000000E+00  0.00000000000E+00  0.14999999963E+04  0.15000000000E+04  0.10566000000E+00 0.  1.
        994   -1    0    0    0    0 -0.00000000000E+00 -0.00000000000E+00  0.11368683772E-12  0.17120000000E+03  0.17120000000E+03 0.  0.
         13    1    1    2    0    0 -0.46291237414E+02  0.46856883152E+01  0.15432034536E+03  0.16118192980E+03  0.10566000000E+00 0.  1.
        994    1    1    2    0    0  0.59589570643E+02  0.48130385032E+01  0.18032322744E+02  0.18223250789E+03  0.17120000000E+03 0.  0.
        998    1    1    2    0    0 -0.13298333228E+02 -0.94987268184E+01  0.13276473282E+04  0.13277855623E+04  0.10000000000E+02 0. -1.
</event>
<event>
 5    1  0.1360042E-008  0.3783944E+03  0.7957747E-01  0.3458180E+00
         13   -1    0    0    0    0  0.00000000000E+00  0.00000000000E+00  0.14999999963E+04  0.15000000000E+04  0.10566000000E+00 0.  1.
        994   -1    0    0    0    0 -0.00000000000E+00 -0.00000000000E+00  0.11368683772E-12  0.17120000000E+03  0.17120000000E+03 0.  0.
         13    1    1    2    0    0  0.42710839766E+02  0.16766732953E+02  0.18276156583E+03  0.18843338419E+03  0.10566000000E+00 0.  1.
        994    1    1    2    0    0 -0.46663520238E+02 -0.15970222053E+02  0.13164888433E+02  0.17864849958E+03  0.17120000000E+03 0.  0.
        998    1    1    2    0    0  0.39526804714E+01 -0.79651090022E+00  0.13040735420E+04  0.13041181162E+04  0.10000000000E+02 0.  1.
</event>
<event>
 5    1  0.1360042E-008  0.3895513E+03  0.7957747E-01  0.3410596E+00
         13   -1    0    0    0    0  0.00000000000E+00  0.00000000000E+00  0.14999999963E+04  0.15000000000E+04  0.10566000000E+00 0.  1.
        994   -1    0    0    0    0 -0.00000000000E+00 -0.00000000000E+00  0.11368683772E-12  0.17120000000E+03  0.17120000000E+03 0.  0.
         13    1    1    2    0    0  0.61324829340E+02  0.14720796194E+03  0.42141229284E+03  0.45057657559E+03  0.10566000000E+00 0.  1.
        994    1    1    2    0    0 -0.61700626326E+02 -0.13445035733E+03  0.10943497802E+03  0.25133507573E+03  0.17120000000E+03 0.  0.
        998    1    1    2    0    0  0.37579698578E+00 -0.12757604607E+02  0.96915272542E+03  0.96928834868E+03  0.10000000000E+02 0.  1.
</event>
<event>
 5    1  0.1360042E-008  0.3830241E+03  0.7957747E-01  0.3438096E+00
         13   -1    0    0    0    0  0.00000000000E+00  0.00000000000E+00  0.14999999963E+04  0.15000000000E+04  0.10566000000E+00 0.  1.
        994   -1    0    0    0    0 -0.00000000000E+00 -0.00000000000E+00  0.11368683772E-12  0.17120000000E+03  0.17120000000E+03 0.  0.
         13    1    1    2    0    0  0.16038627419E+02  0.16041594605E+02  0.10648269122E+03  0.10887214988E+03  0.10566000000E+00 0.  1.
        994    1    1    2    0    0  0.30124227356E+01 -0.44512502113E+01  0.27099475354E+01  0.17130578547E+03  0.17120000000E+03 0.  0.
        998    1    1    2    0    0 -0.19051050155E+02 -0.11590344394E+02  0.13908073575E+04  0.13910220647E+04  0.10000000000E+02 0.  1.
</event>
<event>
 5    1  0.1360042E-008  0.3789766E+03  0.7957747E-01  0.3455627E+00
         13   -1    0    0    0    0  0.00000000000E+00  0.00000000000E+00  0.14999999963E+04  0.15000000000E+04  0.10566000000E+00 0.  1.
        994   -1    0    0    0    0 -0.00000000000E+00 -0.00000000000E+00  0.11368683772E-12  0.17120000000E+03  0.17120000000E+03 0.  0.
         13    1    1    2    0    0  0.20655199301E+02  0.30961122324E+02  0.18355609504E+03  0.18729142945E+03  0.10566000000E+00 0.  1.
        994    1    1    2    0    0  0.72128738972E+01  0.71475362517E+01  0.49965963727E+01  0.17157365415E+03  0.17120000000E+03 0.  0.
        998    1    1    2    0    0 -0.27868073198E+02 -0.38108658576E+02  0.13114473049E+04  0.13123349164E+04  0.10000000000E+02 0.  1.
</event>
<event>
 5    1  0.1360042E-008  0.3859718E+03  0.7957747E-01  0.3425561E+00
         13   -1    0    0    0    0  0.00000000000E+00  0.00000000000E+00  0.14999999963E+04  0.15000000000E+04  0.10566000000E+00 0. -1.
        994   -1    0    0    0    0 -0.00000000000E+00 -0.00000000000E+00  0.11368683772E-12  0.17120000000E+03  0.17120000000E+03 0.  0.
         13    1    1    2    0    0  0.37405058670E+01  0.12500891444E+02  0.73452372482E+02  0.74602452093E+02  0.10566000000E+00 0. -1.
        994    1    1    2    0    0 -0.44928649302E+01 -0.10307442418E+02  0.15630166275E+01  0.17157596634E+03  0.17120000000E+03 0.  0.
        998    1    1    2    0    0  0.75235906324E+00 -0.21934490259E+01  0.14249846072E+04  0.14250215816E+04  0.10000000000E+02 0. -1.
</event>
<event>
 5    1  0.1360042E-008  0.3265873E+03  0.7957747E-01  0.3722773E+00
         13   -1    0    0    0    0  0.00000000000E+00  0.00000000000E+00  0.14999999963E+04  0.15000000000E+04  0.10566000000E+00 0. -1.
        994   -1    0    0    0    0 -0.00000000000E+00 -0.00000000000E+00  0.11368683772E-12  0.17120000000E+03  0.17120000000E+03 0.  0.
         13    1    1    2    0    0 -0.15001954895E+03 -0.15233214352E+03  0.79554220992E+03  0.82377082125E+03  0.10566000000E+00 0. -1.
        994    1    1    2    0    0  0.15318744548E+03  0.14598009676E+03  0.18794499579E+03  0.33077083237E+03  0.17120000000E+03 0.  0.
        998    1    1    2    0    0 -0.31678965258E+01  0.63520467675E+01  0.51651279056E+03  0.51665834638E+03  0.10000000000E+02 0.  1.
</event>
<event>
 5    1  0.1360042E-008  0.3780109E+03  0.7957747E-01  0.3459865E+00
         13   -1    0    0    0    0  0.00000000000E+00  0.00000000000E+00  0.14999999963E+04  0.15000000000E+04  0.10566000000E+00 0. -1.
        994   -1    0    0    0    0 -0.00000000000E+00 -0.00000000000E+00  0.11368683772E-12  0.17120000000E+03  0.17120000000E+03 0.  0.
         13    1    1    2    0    0 -0.10998653581E+02  0.59715488332E+01  0.12869637708E+02  0.17951838759E+02  0.10566000000E+00 0. -1.
        994    1    1    2    0    0  0.10143085666E+02 -0.71748962439E+01  0.56602106585E+01  0.17174352770E+03  0.17120000000E+03 0.  0.
        998    1    1    2    0    0  0.85556791509E+00  0.12033474106E+01  0.14814701479E+04  0.14815046335E+04  0.10000000000E+02 0. -1.
</event>
<event>
 5    1  0.1360042E-008  0.3819282E+03  0.7957747E-01  0.3442806E+00
         13   -1    0    0    0    0  0.00000000000E+00  0.00000000000E+00  0.14999999963E+04  0.15000000000E+04  0.10566000000E+00 0. -1.
        994   -1    0    0    0    0 -0.00000000000E+00 -0.00000000000E+00  0.11368683772E-12  0.17120000000E+03  0.17120000000E+03 0.  0.
         13    1    1    2    0    0 -0.64777390056E+01 -0.15118383737E+02  0.45496208417E+02  0.48378122884E+02  0.10566000000E+00 0. -1.
        994    1    1    2    0    0 -0.35762601121E+01 -0.10338895168E+02  0.35606347644E+01  0.17158613146E+03  0.17120000000E+03 0.  0.
        998    1    1    2    0    0  0.10053999118E+02  0.25457278905E+02  0.14509431531E+04  0.14512357457E+04  0.10000000000E+02 0. -1.
</event>
<event>
 5    1  0.1360042E-008  0.3792046E+03  0.7957747E-01  0.3454629E+00
         13   -1    0    0    0    0  0.00000000000E+00  0.00000000000E+00  0.14999999963E+04  0.15000000000E+04  0.10566000000E+00 0. -1.
        994   -1    0    0    0    0 -0.00000000000E+00 -0.00000000000E+00  0.11368683772E-12  0.17120000000E+03  0.17120000000E+03 0.  0.
         13    1    1    2    0    0 -0.31353985379E+02  0.42739688319E+02  0.28683522974E+03  0.29169198402E+03  0.10566000000E+00 0. -1.
        994    1    1    2    0    0  0.16959015666E+02 -0.35426103128E+02  0.97230467989E+01  0.17591644219E+03  0.17120000000E+03 0.  0.
        998    1    1    2    0    0  0.14394969713E+02 -0.73135851913E+01  0.12034417197E+04  0.12035915738E+04  0.10000000000E+02 0. -1.
</event>
<event>
 5    1  0.1360042E-008  0.3829932E+03  0.7957747E-01  0.3438228E+00
         13   -1    0    0    0    0  0.00000000000E+00  0.00000000000E+00  0.14999999963E+04  0.15000000000E+04  0.10566000000E+00 0.  1.
        994   -1    0    0    0    0 -0.00000000000E+00 -0.00000000000E+00  0.11368683772E-12  0.17120000000E+03  0.17120000000E+03 0.  0.
         13    1    1    2    0    0  0.22916306621E+01 -0.16032977421E+02  0.52761021023E+02  0.55190981505E+02  0.10566000000E+00 0.  1.
        994    1    1    2    0    0 -0.14125532103E+01 -0.50689861586E+01  0.27214271592E+01  0.17130246961E+03  0.17120000000E+03 0.  0.
        998    1    1    2    0    0 -0.87907745181E+00  0.21101963580E+02  0.14445175481E+04  0.14447065489E+04  0.10000000000E+02 0.  1.
</event>
<event>
 5    1  0.1360042E-008  0.3826505E+03  0.7957747E-01  0.3439698E+00
         13   -1    0    0    0    0  0.00000000000E+00  0.00000000000E+00  0.14999999963E+04  0.15000000000E+04  0.10566000000E+00 0.  1.
        994   -1    0    0    0    0 -0.00000000000E+00 -0.00000000000E+00  0.11368683772E-12  0.17120000000E+03  0.17120000000E+03 0.  0.
         13    1    1    2    0    0 -0.35677576626E+01 -0.25571629671E+02  0.13137686828E+03  0.13388999149E+03  0.10566000000E+00 0.  1.
        994    1    1    2    0    0 -0.43062846286E+02  0.96759454918E+01  0.92837379804E+01  0.17704140883E+03  0.17120000000E+03 0.  0.
        998    1    1    2    0    0  0.46630603948E+02  0.15895684179E+02  0.13593393900E+04  0.13602685997E+04  0.10000000000E+02 0.  1.
</event>
<event>
 5    1  0.1360042E-008  0.3719310E+03  0.7957747E-01  0.3487063E+00
         13   -1    0    0    0    0  0.00000000000E+00  0.00000000000E+00  0.14999999963E+04  0.15000000000E+04  0.10566000000E+00 0. -1.
        994   -1    0    0    0    0 -0.00000000000E+00 -0.00000000000E+00  0.11368683772E-12  0.17120000000E+03  0.17120000000E+03 0.  0.
         13    1    1    2    0    0 -0.97292567845E+02  0.24559217355E+02  0.28812073625E+03  0.30509436038E+03  0.10566000000E+00 0. -1.
        994    1    1    2    0    0  0.11763667695E+03 -0.38125056032E+02  0.67922852031E+02  0.22184422799E+03  0.17120000000E+03 0.  0.
        998    1    1    2    0    0 -0.20344109110E+02  0.13565838677E+02  0.11439564080E+04  0.11442614116E+04  0.10000000000E+02 0. -1.
</event>
<event>
 5    1  0.1360042E-008  0.3706236E+03  0.7957747E-01  0.3493030E+00
         13   -1    0    0    0    0  0.00000000000E+00  0.00000000000E+00  0.14999999963E+04  0.15000000000E+04  0.10566000000E+00 0.  1.
        994   -1    0    0    0    0 -0.00000000000E+00 -0.00000000000E+00  0.11368683772E-12  0.17120000000E+03  0.17120000000E+03 0.  0.
         13    1    1    2    0    0 -0.20043373061E+02  0.12108922716E+02  0.26516190889E+02  0.35376296532E+02  0.10566000000E+00 0.  1.
        994    1    1    2    0    0  0.21013285823E+02 -0.93494821423E+01  0.10770655855E+02  0.17307344691E+03  0.17120000000E+03 0.  0.
        998    1    1    2    0    0 -0.96991276171E+00 -0.27594405738E+01  0.14627131495E+04  0.14627502566E+04  0.10000000000E+02 0.  1.
</event>
<event>
 5    1  0.1360042E-008  0.3780055E+03  0.7957747E-01  0.3459889E+00
         13   -1    0    0    0    0  0.00000000000E+00  0.00000000000E+00  0.14999999963E+04  0.15000000000E+04  0.10566000000E+00 0. -1.
        994   -1    0    0    0    0 -0.00000000000E+00 -0.00000000000E+00  0.11368683772E-12  0.17120000000E+03  0.17120000000E+03 0.  0.
         13    1    1    2    0    0 -0.17190262510E+02 -0.80751491997E+01  0.32395045115E+02  0.37552140708E+02  0.10566000000E+00 0. -1.
        994    1    1    2    0    0  0.16916119191E+02  0.87957380880E+01  0.63675724764E+01  0.17237606004E+03  0.17120000000E+03 0.  0.
        998    1    1    2    0    0  0.27414331893E+00 -0.72058888828E+00  0.14612373787E+04  0.14612717992E+04  0.10000000000E+02 0. -1.
</event>
<event>
 5    1  0.1360042E-008  0.3798016E+03  0.7957747E-01  0.3452023E+00
         13   -1    0    0    0    0  0.00000000000E+00  0.00000000000E+00  0.14999999963E+04  0.15000000000E+04  0.10566000000E+00 0. -1.
        994   -1    0    0    0    0 -0.00000000000E+00 -0.00000000000E+00  0.11368683772E-12  0.17120000000E+03  0.17120000000E+03 0.  0.
         13    1    1    2    0    0  0.57906519426E+01 -0.39097794692E+02  0.22564076132E+03  0.22907626139E+03  0.10566000000E+00 0. -1.
        994    1    1    2    0    0  0.85134844897E+00 -0.28285224238E+01  0.42625402498E+01  0.17127852925E+03  0.17120000000E+03 0.  0.
        998    1    1    2    0    0 -0.66420003915E+01  0.41926317116E+02  0.12700966947E+04  0.12708452094E+04  0.10000000000E+02 0. -1.
</event>
<event>
 5    1  0.1360042E-008  0.3816915E+03  0.7957747E-01  0.3443826E+00
         13   -1    0    0    0    0  0.00000000000E+00  0.00000000000E+00  0.14999999963E+04  0.15000000000E+04  0.10566000000E+00 0.  1.
        994   -1    0    0    0    0 -0.00000000000E+00 -0.00000000000E+00  0.11368683772E-12  0.17120000000E+03  0.17120000000E+03 0.  0.
         13    1    1    2    0    0  0.16592261558E+02 -0.17665199129E+00  0.43674950775E+02  0.46720946467E+02  0.10566000000E+00 0.  1.
        994    1    1    2    0    0  0.66369051442E+01  0.95637345715E+01  0.37323630103E+01  0.17163590552E+03  0.17120000000E+03 0.  0.
        998    1    1    2    0    0 -0.23229166702E+02 -0.93870825802E+01  0.14525926825E+04  0.14528431480E+04  0.10000000000E+02 0.  1.
</event>
<event>
 5    1  0.1360042E-008  0.3828569E+03  0.7957747E-01  0.3438813E+00
         13   -1    0    0    0    0  0.00000000000E+00  0.00000000000E+00  0.14999999963E+04  0.15000000000E+04  0.10566000000E+00 0.  1.
        994   -1    0    0    0    0 -0.00000000000E+00 -0.00000000000E+00  0.11368683772E-12  0.17120000000E+03  0.17120000000E+03 0.  0.
         13    1    1    2    0    0  0.86302823051E+01 -0.11261369149E+02  0.34456506753E+02  0.37263416771E+02  0.10566000000E+00 0.  1.
        994    1    1    2    0    0 -0.17931071446E+02  0.16734304647E+02  0.46926112274E+01  0.17301162064E+03  0.17120000000E+03 0.  0.
        998    1    1    2    0    0  0.93007891409E+01 -0.54729354981E+01  0.14608508783E+04  0.14609249626E+04  0.10000000000E+02 0.  1.
</event>
<event>
 5    1  0.1360042E-008  0.3702754E+03  0.7957747E-01  0.3494626E+00
         13   -1    0    0    0    0  0.00000000000E+00  0.00000000000E+00  0.14999999963E+04  0.15000000000E+04  0.10566000000E+00 0. -1.
        994   -1    0    0    0    0 -0.00000000000E+00 -0.00000000000E+00  0.11368683772E-12  0.17120000000E+03  0.17120000000E+03 0.  0.
         13    1    1    2    0    0 -0.17061303571E+02 -0.22604058139E+02  0.48228276893E+02  0.55928609674E+02  0.10566000000E+00 0. -1.
        994    1    1    2    0    0 -0.44029645710E+02 -0.23020363913E+02  0.17701206648E+02  0.17914050232E+03  0.17120000000E+03 0.  0.
        998    1    1    2    0    0  0.61090949281E+02  0.45624422052E+02  0.14340705127E+04  0.14361308880E+04  0.10000000000E+02 0. -1.
</event>
<event>
 5    1  0.1360042E-008  0.3847748E+03  0.7957747E-01  0.3430628E+00
         13   -1    0    0    0    0  0.00000000000E+00  0.00000000000E+00  0.14999999963E+04  0.15000000000E+04  0.10566000000E+00 0.  1.
        994   -1    0    0    0    0 -0.00000000000E+00 -0.00000000000E+00  0.11368683772E-12  0.17120000000E+03  0.17120000000E+03 0.  0.
         13    1    1    2    0    0 -0.99944589082E+01  0.10840720175E+02  0.62932447175E+02  0.64636789016E+02  0.10566000000E+00 0.  1.
        994    1    1    2    0    0 -0.95954524461E+00 -0.11927330203E+02  0.22133410457E+01  0.17163193412E+03  0.17120000000E+03 0.  0.
        998    1    1    2    0    0  0.10954004153E+02  0.10866100285E+01  0.14348542081E+04  0.14349312769E+04  0.10000000000E+02 0.  1.
</event>
<event>
 5    1  0.1360042E-008  0.3854564E+03  0.7957747E-01  0.3427739E+00
         13   -1    0    0    0    0  0.00000000000E+00  0.00000000000E+00  0.14999999963E+04  0.15000000000E+04  0.10566000000E+00 0.  1.
        994   -1    0    0    0    0 -0.00000000000E+00 -0.00000000000E+00  0.11368683772E-12  0.17120000000E+03  0.17120000000E+03 0.  0.
         13    1    1    2    0    0  0.11358325555E+02 -0.60964171508E+01  0.56253235751E+02  0.57711485495E+02  0.10566000000E+00 0.  1.
        994    1    1    2    0    0 -0.13391042946E+02  0.11920486475E+02  0.24598736002E+01  0.17215373655E+03  0.17120000000E+03 0.  0.
        998    1    1    2    0    0  0.20327173916E+01 -0.58240693244E+01  0.14412868869E+04  0.14413347780E+04  0.10000000000E+02 0.  1.
</event>
<event>
 5    1  0.1360042E-008  0.3947222E+03  0.7957747E-01  0.3389458E+00
         13   -1    0    0    0    0  0.00000000000E+00  0.00000000000E+00  0.14999999963E+04  0.15000000000E+04  0.10566000000E+00 0.  1.
        994   -1    0    0    0    0 -0.00000000000E+00 -0.00000000000E+00  0.11368683772E-12  0.17120000000E+03  0.17120000000E+03 0.  0.
         13    1    1    2    0    0  0.49274861931E+02  0.84193303937E+01  0.40398863604E+02  0.64272672942E+02  0.10566000000E+00 0.  1.
        994    1    1    2    0    0 -0.54640319055E+02  0.29367098477E+02  0.39561682216E+02  0.18633989814E+03  0.17120000000E+03 0.  0.
        998    1    1    2    0    0  0.53654571243E+01 -0.37786428870E+02  0.14200394505E+04  0.14205874289E+04  0.10000000000E+02 0.  1.
</event>
<event>
 5    1  0.1360042E-008  0.3741450E+03  0.7957747E-01  0.3477055E+00
         13   -1    0    0    0    0  0.00000000000E+00  0.00000000000E+00  0.14999999963E+04  0.15000000000E+04  0.10566000000E+00 0. -1.
        994   -1    0    0    0    0 -0.00000000000E+00 -0.00000000000E+00  0.11368683772E-12  0.17120000000E+03  0.17120000000E+03 0.  0.
         13    1    1    2    0    0  0.70252930138E+02 -0.82908987449E+01  0.19938956615E+03  0.21156659341E+03  0.10566000000E+00 0. -1.
        994    1    1    2    0    0 -0.31073188227E+02 -0.22020556343E+02  0.18310661609E+02  0.17633822120E+03  0.17120000000E+03 0.  0.
        998    1    1    2    0    0 -0.39179741911E+02  0.30311455088E+02  0.12822997685E+04  0.12832951854E+04  0.10000000000E+02 0. -1.
</event>
<event>
 5    1  0.1360042E-008  0.3787363E+03  0.7957747E-01  0.3456679E+00
         13   -1    0    0    0    0  0.00000000000E+00  0.00000000000E+00  0.14999999963E+04  0.15000000000E+04  0.10566000000E+00 0. -1.
        994   -1    0    0    0    0 -0.00000000000E+00 -0.00000000000E+00  0.11368683772E-12  0.17120000000E+03  0.17120000000E+03 0.  0.
         13    1    1    2    0    0 -0.13217167016E+02  0.29906706606E+01  0.17030789125E+02  0.21764571147E+02  0.10566000000E+00 0. -1.
        994    1    1    2    0    0  0.69880632315E+01 -0.27978966098E+02  0.75692396664E+01  0.17377683666E+03  0.17120000000E+03 0.  0.
        998    1    1    2    0    0  0.62291037849E+01  0.24988295438E+02  0.14753999675E+04  0.14756585922E+04  0.10000000000E+02 0. -1.
</event>
<event>
 5    1  0.1360042E-008  0.3825306E+03  0.7957747E-01  0.3440213E+00
         13   -1    0    0    0    0  0.00000000000E+00  0.00000000000E+00  0.14999999963E+04  0.15000000000E+04  0.10566000000E+00 0.  1.
        994   -1    0    0    0    0 -0.00000000000E+00 -0.00000000000E+00  0.11368683772E-12  0.17120000000E+03  0.17120000000E+03 0.  0.
         13    1    1    2    0    0  0.19134949081E+02  0.31795491398E+02  0.20846438742E+03  0.21174161503E+03  0.10566000000E+00 0.  1.
        994    1    1    2    0    0 -0.34543169959E+02 -0.23647010054E+02  0.86925653765E+01  0.17645796204E+03  0.17120000000E+03 0.  0.
        998    1    1    2    0    0  0.15408220878E+02 -0.81484813442E+01  0.12828430435E+04  0.12830004229E+04  0.10000000000E+02 0.  1.
</event>
<event>
 5    1  0.1360042E-008  0.3736658E+03  0.7957747E-01  0.3479211E+00
         13   -1    0    0    0    0  0.00000000000E+00  0.00000000000E+00  0.14999999963E+04  0.15000000000E+04  0.10566000000E+00 0.  1.
        994   -1    0    0    0    0 -0.00000000000E+00 -0.00000000000E+00  0.11368683772E-12  0.17120000000E+03  0.17120000000E+03 0.  0.
         13    1    1    2    0    0  0.36370422636E+02 -0.30581763979E+02  0.78524540190E+02  0.91783258315E+02  0.10566000000E+00 0.  1.
        994    1    1    2    0    0 -0.41489780210E+02  0.27368643287E+02  0.21691456699E+02  0.17958397420E+03  0.17120000000E+03 0.  0.
        998    1    1    2    0    0  0.51193575737E+01  0.32131206919E+01  0.13997839994E+04  0.13998327675E+04  0.10000000000E+02 0.  1.
</event>
<event>
 5    1  0.1360042E-008  0.3720512E+03  0.7957747E-01  0.3486517E+00
         13   -1    0    0    0    0  0.00000000000E+00  0.00000000000E+00  0.14999999963E+04  0.15000000000E+04  0.10566000000E+00 0. -1.
        994   -1    0    0    0    0 -0.00000000000E+00 -0.00000000000E+00  0.11368683772E-12  0.17120000000E+03  0.17120000000E+03 0.  0.
         13    1    1    2    0    0 -0.82966775029E+02  0.14356634132E+03  0.73316890810E+03  0.75168573160E+03  0.10566000000E+00 0. -1.
        994    1    1    2    0    0  0.20129134884E+03 -0.13015992774E+03  0.24192858119E+03  0.38118065573E+03  0.17120000000E+03 0.  0.
        998    1    1    2    0    0 -0.11832457381E+03 -0.13406413580E+02  0.52490250699E+03  0.53833361267E+03  0.10000000000E+02 0. -1.
</event>
<event>
 5    1  0.1360042E-008  0.3811021E+03  0.7957747E-01  0.3446374E+00
         13   -1    0    0    0    0  0.00000000000E+00  0.00000000000E+00  0.14999999963E+04  0.15000000000E+04  0.10566000000E+00 0.  1.
        994   -1    0    0    0    0 -0.00000000000E+00 -0.00000000000E+00  0.11368683772E-12  0.17120000000E+03  0.17120000000E+03 0.  0.
         13    1    1    2    0    0  0.11795154350E+02  0.30113964425E+01  0.17564294344E+02  0.21370769161E+02  0.10566000000E+00 0.  1.
        994    1    1    2    0    0 -0.42877470206E+02 -0.57765748646E+00  0.97269025113E+01  0.17675650984E+03  0.17120000000E+03 0.  0.
        998    1    1    2    0    0  0.31082315855E+02 -0.24337389560E+01  0.14727087994E+04  0.14730727210E+04  0.10000000000E+02 0.  1.
</event>
<event>
 5    1  0.1360042E-008  0.3716894E+03  0.7957747E-01  0.3488163E+00
         13   -1    0    0    0    0  0.00000000000E+00  0.00000000000E+00  0.14999999963E+04  0.15000000000E+04  0.10566000000E+00 0. -1.
        994   -1    0    0    0    0 -0.00000000000E+00 -0.00000000000E+00  0.11368683772E-12  0.17120000000E+03  0.17120000000E+03 0.  0.
         13    1    1    2    0    0  0.32315993983E+02  0.36595195912E+01  0.39318038612E+02  0.51025825570E+02  0.10566000000E+00 0. -1.
        994    1    1    2    0    0 -0.29318329539E+02 -0.51555958828E+01  0.14957584865E+02  0.17441133553E+03  0.17120000000E+03 0.  0.
        998    1    1    2    0    0 -0.29976644446E+01  0.14960762916E+01  0.14457243728E+04  0.14457628389E+04  0.10000000000E+02 0. -1.
</event>
<event>
 5    1  0.1360042E-008  0.3841047E+03  0.7957747E-01  0.3433478E+00
         13   -1    0    0    0    0  0.00000000000E+00  0.00000000000E+00  0.14999999963E+04  0.15000000000E+04  0.10566000000E+00 0. -1.
        994   -1    0    0    0    0 -0.00000000000E+00 -0.00000000000E+00  0.11368683772E-12  0.17120000000E+03  0.17120000000E+03 0.  0.
         13    1    1    2    0    0  0.18429612085E+01 -0.17756510362E+02  0.85439540125E+02  0.87284685639E+02  0.10566000000E+00 0. -1.
        994    1    1    2    0    0 -0.66324780643E+01 -0.60992450465E+01  0.23431076356E+01  0.17145296938E+03  0.17120000000E+03 0.  0.
        998    1    1    2    0    0  0.47895168558E+01  0.23855755409E+02  0.14122173485E+04  0.14124623450E+04  0.10000000000E+02 0. -1.
</event>
<event>
 5    1  0.1360042E-008  0.3826378E+03  0.7957747E-01  0.3439753E+00
         13   -1    0    0    0    0  0.00000000000E+00  0.00000000000E+00  0.14999999963E+04  0.15000000000E+04  0.10566000000E+00 0. -1.
        994   -1    0    0    0    0 -0.00000000000E+00 -0.00000000000E+00  0.11368683772E-12  0.17120000000E+03  0.17120000000E+03 0.  0.
         13    1    1    2    0    0 -0.39885085120E+01 -0.36535784019E+02  0.19461688751E+03  0.19805684987E+03  0.10566000000E+00 0. -1.
        994    1    1    2    0    0  0.45873386232E+01  0.45997963178E+02  0.99216226584E+01  0.17760837505E+03  0.17120000000E+03 0.  0.
        998    1    1    2    0    0 -0.59883011119E+00 -0.94621791588E+01  0.12954614861E+04  0.12955347751E+04  0.10000000000E+02 0. -1.
</event>
<event>
 5    1  0.1360042E-008  0.3826412E+03  0.7957747E-01  0.3439738E+00
         13   -1    0    0    0    0  0.00000000000E+00  0.00000000000E+00  0.14999999963E+04  0.15000000000E+04  0.10566000000E+00 0.  1.
        994   -1    0    0    0    0 -0.00000000000E+00 -0.00000000000E+00  0.11368683772E-12  0.17120000000E+03  0.17120000000E+03 0.  0.
         13    1    1    2    0    0  0.14430229918E+02 -0.67447270613E+01  0.45659494696E+02  0.48358282626E+02  0.10566000000E+00 0.  1.
        994    1    1    2    0    0 -0.55711998957E+01 -0.37240851562E+01  0.29546011284E+01  0.17135657777E+03  0.17120000000E+03 0.  0.
        998    1    1    2    0    0 -0.88590300226E+01  0.10468812217E+02  0.14513859005E+04  0.14514851396E+04  0.10000000000E+02 0.  1.
</event>
<event>
 5    1  0.1360042E-008  0.3838357E+03  0.7957747E-01  0.3434625E+00
         13   -1    0    0    0    0  0.00000000000E+00  0.00000000000E+00  0.14999999963E+04  0.15000000000E+04  0.10566000000E+00 0.  1.
        994   -1    0    0    0    0 -0.00000000000E+00 -0.00000000000E+00  0.11368683772E-12  0.17120000000E+03  0.17120000000E+03 0.  0.
         13    1    1    2    0    0 -0.76074718388E+00 -0.23466138970E+02  0.10390345571E+03  0.10652313217E+03  0.10566000000E+00 0.  1.
        994    1    1    2    0    0  0.95511600523E+01  0.40845367170E+02  0.80396001167E+01  0.17644728348E+03  0.17120000000E+03 0.  0.
        998    1    1    2    0    0 -0.87904128684E+01 -0.17379228200E+02  0.13880569405E+04  0.13882295843E+04  0.10000000000E+02 0.  1.
</event>
<event>
 5    1  0.1360042E-008  0.3752557E+03  0.7957747E-01  0.3472080E+00
         13   -1    0    0    0    0  0.00000000000E+00  0.00000000000E+00  0.14999999963E+04  0.15000000000E+04  0.10566000000E+00 0.  1.
        994   -1    0    0    0    0 -0.00000000000E+00 -0.00000000000E+00  0.11368683772E-12  0.17120000000E+03  0.17120000000E+03 0.  0.
         13    1    1    2    0    0  0.28326915806E+02 -0.16835575963E+02  0.75831191063E+02  0.82681506271E+02  0.10566000000E+00 0.  1.
        994    1    1    2    0    0 -0.13645583147E+02  0.49147705830E+02  0.15435297721E+02  0.17930250233E+03  0.17120000000E+03 0.  0.
        998    1    1    2    0    0 -0.14681332660E+02 -0.32312129867E+02  0.14087335075E+04  0.14092159914E+04  0.10000000000E+02 0.  1.
</event>
<event>
 5    1  0.1360042E-008  0.3749439E+03  0.7957747E-01  0.3473474E+00
         13   -1    0    0    0    0  0.00000000000E+00  0.00000000000E+00  0.14999999963E+04  0.15000000000E+04  0.10566000000E+00 0. -1.
        994   -1    0    0    0    0 -0.00000000000E+00 -0.00000000000E+00  0.11368683772E-12  0.17120000000E+03  0.17120000000E+03 0.  0.
         13    1    1    2    0    0  0.27580973938E+02 -0.29109187970E+03  0.10254445909E+04  0.10663169382E+04  0.10566000000E+00 0. -1.
        994    1    1    2    0    0 -0.64109672485E+01  0.29090638537E+03  0.38379535711E+03  0.51115158387E+03  0.17120000000E+03 0.  0.
        998    1    1    2    0    0 -0.21170006689E+02  0.18549432242E+00  0.90760048233E+02  0.93731477885E+02  0.10000000000E+02 0. -1.
</event>
<event>
 5    1  0.1360042E-008  0.3850634E+03  0.7957747E-01  0.3429403E+00
         13   -1    0    0    0    0  0.00000000000E+00  0.00000000000E+00  0.14999999963E+04  0.15000000000E+04  0.10566000000E+00 0. -1.
        994   -1    0    0    0    0 -0.00000000000E+00 -0.00000000000E+00  0.11368683772E-12  0.17120000000E+03  0.17120000000E+03 0.  0.
         13    1    1    2    0    0 -0.11671096951E+02  0.70360834905E+01  0.56479544718E+02  0.58100525906E+02  0.10566000000E+00 0. -1.
        994    1    1    2    0    0  0.12420494360E+02 -0.61944912361E+01  0.22323108788E+01  0.17177620212E+03  0.17120000000E+03 0.  0.
        998    1    1    2    0    0 -0.74939740925E+00 -0.84159225438E+00  0.14412881407E+04  0.14413232720E+04  0.10000000000E+02 0. -1.
</event>
<event>
 5    1  0.1360042E-008  0.3800962E+03  0.7957747E-01  0.3450740E+00
         13   -1    0    0    0    0  0.00000000000E+00  0.00000000000E+00  0.14999999963E+04  0.15000000000E+04  0.10566000000E+00 0.  1.
        994   -1    0    0    0    0 -0.00000000000E+00 -0.00000000000E+00  0.11368683772E-12  0.17120000000E+03  0.17120000000E+03 0.  0.
         13    1    1    2    0    0 -0.44420397339E+01  0.18434842007E+02  0.42985391744E+02  0.46982232644E+02  0.10566000000E+00 0.  1.
        994    1    1    2    0    0  0.77939193921E+01 -0.75265032338E+01  0.44770086943E+01  0.17160092377E+03  0.17120000000E+03 0.  0.
        998    1    1    2    0    0 -0.33518796582E+01 -0.10908338773E+02  0.14525375958E+04  0.14526168436E+04  0.10000000000E+02 0.  1.
</event>
<event>
 5    1  0.1360042E-008  0.3810967E+03  0.7957747E-01  0.3446397E+00
         13   -1    0    0    0    0  0.00000000000E+00  0.00000000000E+00  0.14999999963E+04  0.15000000000E+04  0.10566000000E+00 0. -1.
        994   -1    0    0    0    0 -0.00000000000E+00 -0.00000000000E+00  0.11368683772E-12  0.17120000000E+03  0.17120000000E+03 0.  0.
         13    1    1    2    0    0 -0.49795357781E+01 -0.45738707090E+02  0.25782645553E+03  0.26189944146E+03  0.10566000000E+00 0. -1.
        994    1    1    2    0    0 -0.10927605872E+02  0.43051370837E+02  0.10179851826E+02  0.17716066856E+03  0.17120000000E+03 0.  0.
        998    1    1    2    0    0  0.15907141650E+02  0.26873362530E+01  0.12319936889E+04  0.12321398900E+04  0.10000000000E+02 0. -1.
</event>
<event>
 5    1  0.1407750E-008  0.3846398E+03  0.7957747E-01  0.3431201E+00
         13   -1    0    0    0    0  0.00000000000E+00  0.00000000000E+00  0.14999999963E+04  0.15000000000E+04  0.10566000000E+00 0.  1.
        994   -1    0    0    0    0 -0.00000000000E+00 -0.00000000000E+00  0.11368683772E-12  0.17120000000E+03  0.17120000000E+03 0.  0.
         13    1    1    2    0    0  0.16878404050E+02 -0.79330846222E+01  0.10186671589E+03  0.10355990211E+03  0.10566000000E+00 0.  1.
        994    1    1    2    0    0 -0.33773536859E+01  0.23830635345E+01  0.18653423777E+01  0.17126005083E+03  0.17120000000E+03 0.  0.
        998    1    1    2    0    0 -0.13501050364E+02  0.55500210877E+01  0.13962679380E+04  0.13963800471E+04  0.10000000000E+02 0.  1.
</event>
<event>
 5    1  0.1360042E-008  0.3859598E+03  0.7957747E-01  0.3425612E+00
         13   -1    0    0    0    0  0.00000000000E+00  0.00000000000E+00  0.14999999963E+04  0.15000000000E+04  0.10566000000E+00 0.  1.
        994   -1    0    0    0    0 -0.00000000000E+00 -0.00000000000E+00  0.11368683772E-12  0.17120000000E+03  0.17120000000E+03 0.  0.
         13    1    1    2    0    0  0.10343497134E+02 -0.78312713992E+01  0.70680217094E+02  0.71861122989E+02  0.10566000000E+00 0.  1.
        994    1    1    2    0    0 -0.15023379749E+02  0.34511478081E+01  0.19337600967E+01  0.17190343740E+03  0.17120000000E+03 0.  0.
        998    1    1    2    0    0  0.46798826149E+01  0.43801235911E+01  0.14273860191E+04  0.14274354396E+04  0.10000000000E+02 0.  1.
</event>
<event>
 5    1  0.1360042E-008  0.3831741E+03  0.7957747E-01  0.3437453E+00
         13   -1    0    0    0    0  0.00000000000E+00  0.00000000000E+00  0.14999999963E+04  0.15000000000E+04  0.10566000000E+00 0. -1.
        994   -1    0    0    0    0 -0.00000000000E+00 -0.00000000000E+00  0.11368683772E-12  0.17120000000E+03  0.17120000000E+03 0.  0.
         13    1    1    2    0    0 -0.13238814312E+02  0.28652121640E+02  0.17988843585E+03  0.18263644432E+03  0.10566000000E+00 0. -1.
        994    1    1    2    0    0  0.14743153041E+02 -0.24263282086E+02  0.52106252410E+01  0.17361641061E+03  0.17120000000E+03 0.  0.
        998    1    1    2    0    0 -0.15043387287E+01 -0.43888395544E+01  0.13149009352E+04  0.13149471451E+04  0.10000000000E+02 0. -1.
</event>
<event>
 5    1  0.1360042E-008  0.3850350E+03  0.7957747E-01  0.3429524E+00
         13   -1    0    0    0    0  0.00000000000E+00  0.00000000000E+00  0.14999999963E+04  0.15000000000E+04  0.10566000000E+00 0.  1.
        994   -1    0    0    0    0 -0.00000000000E+00 -0.00000000000E+00  0.11368683772E-12  0.17120000000E+03  0.17120000000E+03 0.  0.
         13    1    1    2    0    0 -0.81683090564E+01 -0.10092975931E+02  0.53964577992E+02  0.55504741040E+02  0.10566000000E+00 0.  1.
        994    1    1    2    0    0 -0.30715593490E+01  0.65588811294E+01  0.17852626791E+01  0.17136242459E+03  0.17120000000E+03 0.  0.
        998    1    1    2    0    0  0.11239868405E+02  0.35340948019E+01  0.14442501556E+04  0.14443328344E+04  0.10000000000E+02 0.  1.
</event>
<event>
 5    1  0.1360042E-008  0.3733133E+03  0.7957747E-01  0.3480801E+00
         13   -1    0    0    0    0  0.00000000000E+00  0.00000000000E+00  0.14999999963E+04  0.15000000000E+04  0.10566000000E+00 0. -1.
        994   -1    0    0    0    0 -0.00000000000E+00 -0.00000000000E+00  0.11368683772E-12  0.17120000000E+03  0.17120000000E+03 0.  0.
         13    1    1    2    0    0  0.49975995306E+01  0.27595548235E+02  0.49407969714E+02  0.56812401099E+02  0.10566000000E+00 0. -1.
        994    1    1    2    0    0 -0.11320646012E+02 -0.15157859948E+02  0.87719881343E+01  0.17246537484E+03  0.17120000000E+03 0.  0.
        998    1    1    2    0    0  0.63230464816E+01 -0.12437688286E+02  0.14418200384E+04  0.14419222241E+04  0.10000000000E+02 0. -1.
</event>
<event>
 5    1  0.1360042E-008  0.3840417E+03  0.7957747E-01  0.3433747E+00
         13   -1    0    0    0    0  0.00000000000E+00  0.00000000000E+00  0.14999999963E+04  0.15000000000E+04  0.10566000000E+00 0. -1.
        994   -1    0    0    0    0 -0.00000000000E+00 -0.00000000000E+00  0.11368683772E-12  0.17120000000E+03  0.17120000000E+03 0.  0.
         13    1    1    2    0    0 -0.88108270103E+01 -0.25716294193E+02  0.15888670357E+03  0.16119539136E+03  0.10566000000E+00 0. -1.
        994    1    1    2    0    0 -0.35380562590E+01  0.30430751678E+02  0.52089790877E+01  0.17399747686E+03  0.17120000000E+03 0.  0.
        998    1    1    2    0    0  0.12348883269E+02 -0.47144574855E+01  0.13359043136E+04  0.13360071318E+04  0.10000000000E+02 0. -1.
</event>
<event>
 5    1  0.1360042E-008  0.3847726E+03  0.7957747E-01  0.3430637E+00
         13   -1    0    0    0    0  0.00000000000E+00  0.00000000000E+00  0.14999999963E+04  0.15000000000E+04  0.10566000000E+00 0.  1.
        994   -1    0    0    0    0 -0.00000000000E+00 -0.00000000000E+00  0.11368683772E-12  0.17120000000E+03  0.17120000000E+03 0.  0.
         13    1    1    2    0    0  0.12743000503E+02 -0.34963582958E+01  0.49287376782E+02  0.51028083025E+02  0.10566000000E+00 0.  1.
        994    1    1    2    0    0 -0.92767454885E+01  0.86785271452E+01  0.22743627429E+01  0.17168572324E+03  0.17120000000E+03 0.  0.
        998    1    1    2    0    0 -0.34662550143E+01 -0.51821688494E+01  0.14484382568E+04  0.14484861937E+04  0.10000000000E+02 0.  1.
</event>
<event>
 5    1  0.1360042E-008  0.4039303E+03  0.7957747E-01  0.3353151E+00
         13   -1    0    0    0    0  0.00000000000E+00  0.00000000000E+00  0.14999999963E+04  0.15000000000E+04  0.10566000000E+00 0. -1.
        994   -1    0    0    0    0 -0.00000000000E+00 -0.00000000000E+00  0.11368683772E-12  0.17120000000E+03  0.17120000000E+03 0.  0.
         13    1    1    2    0    0 -0.55794508303E+02 -0.68007935898E+02  0.11701746890E+03  0.14639400839E+03  0.10566000000E+00 0. -1.
        994    1    1    2    0    0  0.44034385348E+02  0.54283306105E+02  0.49859761988E+02  0.19152321081E+03  0.17120000000E+03 0.  0.
        998    1    1    2    0    0  0.11760122955E+02  0.13724629794E+02  0.13331227654E+04  0.13332827808E+04  0.10000000000E+02 0. -1.
</event>
<event>
 5    1  0.1360042E-008  0.3763602E+03  0.7957747E-01  0.3467162E+00
         13   -1    0    0    0    0  0.00000000000E+00  0.00000000000E+00  0.14999999963E+04  0.15000000000E+04  0.10566000000E+00 0.  1.
        994   -1    0    0    0    0 -0.00000000000E+00 -0.00000000000E+00  0.11368683772E-12  0.17120000000E+03  0.17120000000E+03 0.  0.
         13    1    1    2    0    0  0.93843409026E+01 -0.14927797117E+02  0.45515506125E+01  0.18210786857E+02  0.10566000000E+00 0.  1.
        994    1    1    2    0    0  0.13059581726E+02  0.12762421950E+02  0.15535299841E+02  0.17287052273E+03  0.17120000000E+03 0.  0.
        998    1    1    2    0    0 -0.22443922629E+02  0.21653751671E+01  0.14799131458E+04  0.14801186904E+04  0.10000000000E+02 0.  1.
</event>
<event>
 5    1  0.1360042E-008  0.3763279E+03  0.7957747E-01  0.3467305E+00
         13   -1    0    0    0    0  0.00000000000E+00  0.00000000000E+00  0.14999999963E+04  0.15000000000E+04  0.10566000000E+00 0. -1.
        994   -1    0    0    0    0 -0.00000000000E+00 -0.00000000000E+00  0.11368683772E-12  0.17120000000E+03  0.17120000000E+03 0.  0.
         13    1    1    2    0    0 -0.68766946585E+01 -0.79777536252E+01  0.64745944124E+01  0.12363859396E+02  0.10566000000E+00 0. -1.
        994    1    1    2    0    0  0.71246365743E+00  0.11576356890E+02  0.64537600113E+01  0.17171374628E+03  0.17120000000E+03 0.  0.
        998    1    1    2    0    0  0.61642310010E+01 -0.35986032649E+01  0.14870716419E+04  0.14871223943E+04  0.10000000000E+02 0. -1.
</event>
<event>
 5    1  0.1360042E-008  0.3917366E+03  0.7957747E-01  0.3401594E+00
         13   -1    0    0    0    0  0.00000000000E+00  0.00000000000E+00  0.14999999963E+04  0.15000000000E+04  0.10566000000E+00 0.  1.
        994   -1    0    0    0    0 -0.00000000000E+00 -0.00000000000E+00  0.11368683772E-12  0.17120000000E+03  0.17120000000E+03 0.  0.
         13    1    1    2    0    0 -0.10269065117E+02 -0.27322366560E+02  0.88085200605E+01  0.30488794704E+02  0.10566000000E+00 0.  1.
        994    1    1    2    0    0  0.11532016094E+02  0.25972178683E+02  0.25993957503E+02  0.17547839550E+03  0.17120000000E+03 0.  0.
        998    1    1    2    0    0 -0.12629509773E+01  0.13501878767E+01  0.14651975187E+04  0.14652328098E+04  0.10000000000E+02 0.  1.
</event>
<event>
 5    1  0.1360042E-008  0.3767501E+03  0.7957747E-01  0.3465433E+00
         13   -1    0    0    0    0  0.00000000000E+00  0.00000000000E+00  0.14999999963E+04  0.15000000000E+04  0.10566000000E+00 0. -1.
        994   -1    0    0    0    0 -0.00000000000E+00 -0.00000000000E+00  0.11368683772E-12  0.17120000000E+03  0.17120000000E+03 0.  0.
         13    1    1    2    0    0 -0.39810932846E+01 -0.26681087187E+02  0.60488844371E+02  0.66231721815E+02  0.10566000000E+00 0. -1.
        994    1    1    2    0    0 -0.62022241198E+00  0.18753356863E+02  0.69734013701E+01  0.17236630006E+03  0.17120000000E+03 0.  0.
        998    1    1    2    0    0  0.46013156965E+01  0.79277303236E+01  0.14325377505E+04  0.14326019781E+04  0.10000000000E+02 0. -1.
</event>
<event>
 5    1  0.1360042E-008  0.3800009E+03  0.7957747E-01  0.3451155E+00
         13   -1    0    0    0    0  0.00000000000E+00  0.00000000000E+00  0.14999999963E+04  0.15000000000E+04  0.10566000000E+00 0.  1.
        994   -1    0    0    0    0 -0.00000000000E+00 -0.00000000000E+00  0.11368683772E-12  0.17120000000E+03  0.17120000000E+03 0.  0.
         13    1    1    2    0    0  0.96079850547E+01 -0.32370594843E+01  0.10504213657E+02  0.14599369832E+02  0.10566000000E+00 0.  1.
        994    1    1    2    0    0 -0.10446094166E+02  0.55915256107E+01  0.46021417281E+01  0.17167121410E+03  0.17120000000E+03 0.  0.
        998    1    1    2    0    0  0.83810911083E+00 -0.23544661264E+01  0.14848936409E+04  0.14849294161E+04  0.10000000000E+02 0.  1.
</event>
<event>
 5    1  0.1360042E-008  0.3853940E+03  0.7957747E-01  0.3428003E+00
         13   -1    0    0    0    0  0.00000000000E+00  0.00000000000E+00  0.14999999963E+04  0.15000000000E+04  0.10566000000E+00 0. -1.
        994   -1    0    0    0    0 -0.00000000000E+00 -0.00000000000E+00  0.11368683772E-12  0.17120000000E+03  0.17120000000E+03 0.  0.
         13    1    1    2    0    0 -0.72547402969E+01  0.15279172169E+02  0.10210519720E+03  0.10349669955E+03  0.10566000000E+00 0. -1.
        994    1    1    2    0    0  0.69183653342E+01 -0.61246823831E+01  0.17151031658E+01  0.17145774142E+03  0.17120000000E+03 0.  0.
        998    1    1    2    0    0  0.33637496274E+00 -0.91544897862E+01  0.13961796959E+04  0.13962455590E+04  0.10000000000E+02 0. -1.
</event>
<event>
 5    1  0.1360042E-008  0.3842777E+03  0.7957747E-01  0.3432741E+00
         13   -1    0    0    0    0  0.00000000000E+00  0.00000000000E+00  0.14999999963E+04  0.15000000000E+04  0.10566000000E+00 0. -1.
        994   -1    0    0    0    0 -0.00000000000E+00 -0.00000000000E+00  0.11368683772E-12  0.17120000000E+03  0.17120000000E+03 0.  0.
         13    1    1    2    0    0 -0.22313951717E+01 -0.18924424689E+02  0.98753133382E+02  0.10057487505E+03  0.10566000000E+00 0. -1.
        994    1    1    2    0    0 -0.40036848563E+01  0.12072881196E+01  0.20468216193E+01  0.17126329588E+03  0.17120000000E+03 0.  0.
        998    1    1    2    0    0  0.62350800280E+01  0.17717136569E+02  0.13992000413E+04  0.13993618291E+04  0.10000000000E+02 0. -1.
</event>
<event>
 5    1  0.1360042E-008  0.3855951E+03  0.7957747E-01  0.3427152E+00
         13   -1    0    0    0    0  0.00000000000E+00  0.00000000000E+00  0.14999999963E+04  0.15000000000E+04  0.10566000000E+00 0.  1.
        994   -1    0    0    0    0 -0.00000000000E+00 -0.00000000000E+00  0.11368683772E-12  0.17120000000E+03  0.17120000000E+03 0.  0.
         13    1    1    2    0    0  0.11338894185E+02  0.53337538139E+01  0.59802436424E+02  0.61101243992E+02  0.10566000000E+00 0.  1.
        994    1    1    2    0    0 -0.37118924313E+01 -0.80988136966E+01  0.15955034134E+01  0.17143906953E+03  0.17120000000E+03 0.  0.
        998    1    1    2    0    0 -0.76270017542E+01  0.27650598827E+01  0.14386020564E+04  0.14386596865E+04  0.10000000000E+02 0.  1.
</event>
<event>
 5    1  0.1360042E-008  0.3731216E+03  0.7957747E-01  0.3481666E+00
         13   -1    0    0    0    0  0.00000000000E+00  0.00000000000E+00  0.14999999963E+04  0.15000000000E+04  0.10566000000E+00 0.  1.
        994   -1    0    0    0    0 -0.00000000000E+00 -0.00000000000E+00  0.11368683772E-12  0.17120000000E+03  0.17120000000E+03 0.  0.
         13    1    1    2    0    0 -0.56883560752E+02 -0.70454865054E+00  0.17453191032E+03  0.18356915524E+03  0.10566000000E+00 0.  1.
        994    1    1    2    0    0  0.68214396545E+02  0.22960066897E+01  0.23754305437E+02  0.18582836858E+03  0.17120000000E+03 0.  0.
        998    1    1    2    0    0 -0.11330835794E+02 -0.15914580392E+01  0.13017137805E+04  0.13018024762E+04  0.10000000000E+02 0.  1.
</event>
<event>
 5    1  0.1360042E-008  0.3857750E+03  0.7957747E-01  0.3426392E+00
         13   -1    0    0    0    0  0.00000000000E+00  0.00000000000E+00  0.14999999963E+04  0.15000000000E+04  0.10566000000E+00 0.  1.
        994   -1    0    0    0    0 -0.00000000000E+00 -0.00000000000E+00  0.11368683772E-12  0.17120000000E+03  0.17120000000E+03 0.  0.
         13    1    1    2    0    0 -0.48740878447E+01  0.11691149962E+02  0.64637158066E+02  0.65866631056E+02  0.10566000000E+00 0.  1.
        994    1    1    2    0    0  0.33482855929E+01 -0.84157627042E+01  0.15150106750E+01  0.17144611788E+03  0.17120000000E+03 0.  0.
        998    1    1    2    0    0  0.15258022518E+01 -0.32753872577E+01  0.14338478275E+04  0.14338872511E+04  0.10000000000E+02 0.  1.
</event>
<event>
 5    1  0.1360042E-008  0.3857705E+03  0.7957747E-01  0.3426411E+00
         13   -1    0    0    0    0  0.00000000000E+00  0.00000000000E+00  0.14999999963E+04  0.15000000000E+04  0.10566000000E+00 0. -1.
        994   -1    0    0    0    0 -0.00000000000E+00 -0.00000000000E+00  0.11368683772E-12  0.17120000000E+03  0.17120000000E+03 0.  0.
         13    1    1    2    0    0 -0.12642487564E+02 -0.57392412940E+01  0.73712772844E+02  0.75009035634E+02  0.10566000000E+00 0. -1.
        994    1    1    2    0    0  0.12028557905E+02  0.13279127460E+02  0.23018639908E+01  0.17215039939E+03  0.17120000000E+03 0.  0.
        998    1    1    2    0    0  0.61392965927E+00 -0.75398861661E+01  0.14239853594E+04  0.14240405650E+04  0.10000000000E+02 0. -1.
</event>
<event>
 5    1  0.1360042E-008  0.3819962E+03  0.7957747E-01  0.3442512E+00
         13   -1    0    0    0    0  0.00000000000E+00  0.00000000000E+00  0.14999999963E+04  0.15000000000E+04  0.10566000000E+00 0.  1.
        994   -1    0    0    0    0 -0.00000000000E+00 -0.00000000000E+00  0.11368683772E-12  0.17120000000E+03  0.17120000000E+03 0.  0.
         13    1    1    2    0    0  0.22483727964E+02 -0.72445996195E+01  0.90925857095E+02  0.93944264856E+02  0.10566000000E+00 0.  1.
        994    1    1    2    0    0 -0.88309922978E+01  0.23747534827E+01  0.34066096390E+01  0.17147790198E+03  0.17120000000E+03 0.  0.
        998    1    1    2    0    0 -0.13652735666E+02  0.48698461368E+01  0.14056675295E+04  0.14057778332E+04  0.10000000000E+02 0.  1.
</event>
<event>
 5    1  0.1360042E-008  0.3843415E+03  0.7957747E-01  0.3432470E+00
         13   -1    0    0    0    0  0.00000000000E+00  0.00000000000E+00  0.14999999963E+04  0.15000000000E+04  0.10566000000E+00 0.  1.
        994   -1    0    0    0    0 -0.00000000000E+00 -0.00000000000E+00  0.11368683772E-12  0.17120000000E+03  0.17120000000E+03 0.  0.
         13    1    1    2    0    0 -0.17273610157E+02 -0.63451597690E+01  0.96851883778E+02  0.98584670288E+02  0.10566000000E+00 0.  1.
        994    1    1    2    0    0 -0.21533227603E+01 -0.65054355423E+01  0.21121800862E+01  0.17135010591E+03  0.17120000000E+03 0.  0.
        998    1    1    2    0    0  0.19426932917E+02  0.12850595311E+02  0.14010359324E+04  0.14012652238E+04  0.10000000000E+02 0.  1.
</event>
<event>
 5    1  0.1360042E-008  0.3849874E+03  0.7957747E-01  0.3429725E+00
         13   -1    0    0    0    0  0.00000000000E+00  0.00000000000E+00  0.14999999963E+04  0.15000000000E+04  0.10566000000E+00 0.  1.
        994   -1    0    0    0    0 -0.00000000000E+00 -0.00000000000E+00  0.11368683772E-12  0.17120000000E+03  0.17120000000E+03 0.  0.
         13    1    1    2    0    0  0.56376114433E+01  0.14173765185E+02  0.77986759737E+02  0.79464609360E+02  0.10566000000E+00 0.  1.
        994    1    1    2    0    0  0.25345208610E+01  0.23413986535E+01  0.16755321499E+01  0.17124296585E+03  0.17120000000E+03 0.  0.
        998    1    1    2    0    0 -0.81721323043E+01 -0.16515163839E+02  0.14203377044E+04  0.14204924248E+04  0.10000000000E+02 0.  1.
</event>
<event>
 5    1  0.1360042E-008  0.3713548E+03  0.7957747E-01  0.3489688E+00
         13   -1    0    0    0    0  0.00000000000E+00  0.00000000000E+00  0.14999999963E+04  0.15000000000E+04  0.10566000000E+00 0.  1.
        994   -1    0    0    0    0 -0.00000000000E+00 -0.00000000000E+00  0.11368683772E-12  0.17120000000E+03  0.17120000000E+03 0.  0.
         13    1    1    2    0    0 -0.19013661954E+02  0.20638330352E+02  0.30030150682E+02  0.41100865376E+02  0.10566000000E+00 0.  1.
        994    1    1    2    0    0 -0.11762627630E+00 -0.81124312269E+01  0.11888245070E+02  0.17180394567E+03  0.17120000000E+03 0.  0.
        998    1    1    2    0    0  0.19131288230E+02 -0.12525899125E+02  0.14580816005E+04  0.14582951890E+04  0.10000000000E+02 0.  1.
</event>
<event>
 5    1  0.1360042E-008  0.3837209E+03  0.7957747E-01  0.3435115E+00
         13   -1    0    0    0    0  0.00000000000E+00  0.00000000000E+00  0.14999999963E+04  0.15000000000E+04  0.10566000000E+00 0.  1.
        994   -1    0    0    0    0 -0.00000000000E+00 -0.00000000000E+00  0.11368683772E-12  0.17120000000E+03  0.17120000000E+03 0.  0.
         13    1    1    2    0    0  0.22284564025E+02 -0.28686637937E+01  0.12319533576E+03  0.12522752470E+03  0.10566000000E+00 0.  1.
        994    1    1    2    0    0 -0.50007053412E+00 -0.34210594237E+01  0.23060012488E+01  0.17125043463E+03  0.17120000000E+03 0.  0.
        998    1    1    2    0    0 -0.21784493491E+02  0.62897232174E+01  0.13744986593E+04  0.13747220407E+04  0.10000000000E+02 0.  1.
</event>
<event>
 5    1  0.1360042E-008  0.3785417E+03  0.7957747E-01  0.3457533E+00
         13   -1    0    0    0    0  0.00000000000E+00  0.00000000000E+00  0.14999999963E+04  0.15000000000E+04  0.10566000000E+00 0. -1.
        994   -1    0    0    0    0 -0.00000000000E+00 -0.00000000000E+00  0.11368683772E-12  0.17120000000E+03  0.17120000000E+03 0.  0.
         13    1    1    2    0    0 -0.14178974076E+02 -0.23519279856E+01  0.19821814808E+02  0.24484492591E+02  0.10566000000E+00 0. -1.
        994    1    1    2    0    0 -0.30830099012E+01 -0.35815496758E+01  0.49461022431E+01  0.17133661715E+03  0.17120000000E+03 0.  0.
        998    1    1    2    0    0  0.17261983978E+02  0.59334776614E+01  0.14752320792E+04  0.14753788903E+04  0.10000000000E+02 0. -1.
</event>
<event>
 5    1  0.1360042E-008  0.3855090E+03  0.7957747E-01  0.3427516E+00
         13   -1    0    0    0    0  0.00000000000E+00  0.00000000000E+00  0.14999999963E+04  0.15000000000E+04  0.10566000000E+00 0.  1.
        994   -1    0    0    0    0 -0.00000000000E+00 -0.00000000000E+00  0.11368683772E-12  0.17120000000E+03  0.17120000000E+03 0.  0.
         13    1    1    2    0    0 -0.50973325341E+01  0.11690287268E+02  0.66784470627E+02  0.67991339863E+02  0.10566000000E+00 0.  1.
        994    1    1    2    0    0 -0.10116104846E+02  0.43988429555E+01  0.17772722680E+01  0.17156422731E+03  0.17120000000E+03 0.  0.
        998    1    1    2    0    0  0.15213437380E+02 -0.16089130223E+02  0.14314382534E+04  0.14316444328E+04  0.10000000000E+02 0.  1.
</event>
<event>
 5    1  0.1360042E-008  0.3759127E+03  0.7957747E-01  0.3469151E+00
         13   -1    0    0    0    0  0.00000000000E+00  0.00000000000E+00  0.14999999963E+04  0.15000000000E+04  0.10566000000E+00 0.  1.
        994   -1    0    0    0    0 -0.00000000000E+00 -0.00000000000E+00  0.11368683772E-12  0.17120000000E+03  0.17120000000E+03 0.  0.
         13    1    1    2    0    0 -0.68135900667E+02  0.24282141244E+02  0.40993934669E+03  0.41627202942E+03  0.10566000000E+00 0.  1.
        994    1    1    2    0    0  0.50351453688E+02  0.77940627629E+01  0.15059317294E+02  0.17925467732E+03  0.17120000000E+03 0.  0.
        998    1    1    2    0    0  0.17784446979E+02 -0.32076204007E+02  0.10750013323E+04  0.10756732933E+04  0.10000000000E+02 0.  1.
</event>
<event>
 5    1  0.1360042E-008  0.3836019E+03  0.7957747E-01  0.3435624E+00
         13   -1    0    0    0    0  0.00000000000E+00  0.00000000000E+00  0.14999999963E+04  0.15000000000E+04  0.10566000000E+00 0. -1.
        994   -1    0    0    0    0 -0.00000000000E+00 -0.00000000000E+00  0.11368683772E-12  0.17120000000E+03  0.17120000000E+03 0.  0.
         13    1    1    2    0    0  0.44693348325E+01  0.16647024137E+02  0.60714924074E+02  0.63114273629E+02  0.10566000000E+00 0. -1.
        994    1    1    2    0    0 -0.64121353139E+01 -0.18211506887E+02  0.35583512709E+01  0.17232201347E+03  0.17120000000E+03 0.  0.
        998    1    1    2    0    0  0.19428004814E+01  0.15644827497E+01  0.14357267209E+04  0.14357637129E+04  0.10000000000E+02 0. -1.
</event>
<event>
 5    1  0.1360042E-008  0.3810447E+03  0.7957747E-01  0.3446622E+00
         13   -1    0    0    0    0  0.00000000000E+00  0.00000000000E+00  0.14999999963E+04  0.15000000000E+04  0.10566000000E+00 0. -1.
        994   -1    0    0    0    0 -0.00000000000E+00 -0.00000000000E+00  0.11368683772E-12  0.17120000000E+03  0.17120000000E+03 0.  0.
         13    1    1    2    0    0  0.10854149620E+02  0.60154609734E+01  0.19474327576E+02  0.23092399903E+02  0.10566000000E+00 0. -1.
        994    1    1    2    0    0 -0.11660346260E+02 -0.11994597056E+02  0.45394934001E+01  0.17207521912E+03  0.17120000000E+03 0.  0.
        998    1    1    2    0    0  0.80619663971E+00  0.59791360825E+01  0.14759861753E+04  0.14760323810E+04  0.10000000000E+02 0. -1.
</event>
<event>
 5    1  0.1360042E-008  0.3780510E+03  0.7957747E-01  0.3459689E+00
         13   -1    0    0    0    0  0.00000000000E+00  0.00000000000E+00  0.14999999963E+04  0.15000000000E+04  0.10566000000E+00 0.  1.
        994   -1    0    0    0    0 -0.00000000000E+00 -0.00000000000E+00  0.11368683772E-12  0.17120000000E+03  0.17120000000E+03 0.  0.
         13    1    1    2    0    0  0.76452969392E+01  0.20296558104E+02  0.47239084621E+02  0.51980218507E+02  0.10566000000E+00 0.  1.
        994    1    1    2    0    0  0.46706084165E+00  0.73501534569E+01  0.53027749067E+01  0.17144037542E+03  0.17120000000E+03 0.  0.
        998    1    1    2    0    0 -0.81123577808E+01 -0.27646711561E+02  0.14474581368E+04  0.14477794061E+04  0.10000000000E+02 0.  1.
</event>
<event>
 5    1  0.1360042E-008  0.3795166E+03  0.7957747E-01  0.3453266E+00
         13   -1    0    0    0    0  0.00000000000E+00  0.00000000000E+00  0.14999999963E+04  0.15000000000E+04  0.10566000000E+00 0. -1.
        994   -1    0    0    0    0 -0.00000000000E+00 -0.00000000000E+00  0.11368683772E-12  0.17120000000E+03  0.17120000000E+03 0.  0.
         13    1    1    2    0    0  0.18230155423E+02 -0.33357982948E+02  0.17290408091E+03  0.17703368592E+03  0.10566000000E+00 0. -1.
        994    1    1    2    0    0 -0.16816263368E+02  0.68254764348E+01  0.54809807397E+01  0.17224649486E+03  0.17120000000E+03 0.  0.
        998    1    1    2    0    0 -0.14138920551E+01  0.26532506513E+02  0.13216149346E+04  0.13219198192E+04  0.10000000000E+02 0. -1.
</event>
<event>
 5    1  0.1360042E-008  0.3837609E+03  0.7957747E-01  0.3434944E+00
         13   -1    0    0    0    0  0.00000000000E+00  0.00000000000E+00  0.14999999963E+04  0.15000000000E+04  0.10566000000E+00 0. -1.
        994   -1    0    0    0    0 -0.00000000000E+00 -0.00000000000E+00  0.11368683772E-12  0.17120000000E+03  0.17120000000E+03 0.  0.
         13    1    1    2    0    0  0.36719542178E+01  0.19184224480E+02  0.93621945243E+02  0.95637845604E+02  0.10566000000E+00 0. -1.
        994    1    1    2    0    0 -0.18218517653E+01  0.35821355495E+01  0.22998869956E+01  0.17126260631E+03  0.17120000000E+03 0.  0.
        998    1    1    2    0    0 -0.18501024525E+01 -0.22766360029E+02  0.14040781640E+04  0.14042995481E+04  0.10000000000E+02 0. -1.
</event>
<event>
 5    1  0.1360042E-008  0.3834473E+03  0.7957747E-01  0.3436284E+00
         13   -1    0    0    0    0  0.00000000000E+00  0.00000000000E+00  0.14999999963E+04  0.15000000000E+04  0.10566000000E+00 0.  1.
        994   -1    0    0    0    0 -0.00000000000E+00 -0.00000000000E+00  0.11368683772E-12  0.17120000000E+03  0.17120000000E+03 0.  0.
         13    1    1    2    0    0  0.18298552082E+02 -0.10340501406E+02  0.93416521403E+02  0.95751870022E+02  0.10566000000E+00 0.  1.
        994    1    1    2    0    0 -0.12219986673E+02 -0.19572716389E+01  0.29093768478E+01  0.17167138218E+03  0.17120000000E+03 0.  0.
        998    1    1    2    0    0 -0.60785654094E+01  0.12297773045E+02  0.14036740980E+04  0.14037767478E+04  0.10000000000E+02 0.  1.
</event>
<event>
 5    1  0.1360042E-008  0.3861397E+03  0.7957747E-01  0.3424853E+00
         13   -1    0    0    0    0  0.00000000000E+00  0.00000000000E+00  0.14999999963E+04  0.15000000000E+04  0.10566000000E+00 0. -1.
        994   -1    0    0    0    0 -0.00000000000E+00 -0.00000000000E+00  0.11368683772E-12  0.17120000000E+03  0.17120000000E+03 0.  0.
         13    1    1    2    0    0  0.10697638972E+02  0.64269217732E+01  0.73919855288E+02  0.74965998779E+02  0.10566000000E+00 0. -1.
        994    1    1    2    0    0 -0.84074952224E+01 -0.26358553817E+01  0.13197813902E+01  0.17143166432E+03  0.17120000000E+03 0.  0.
        998    1    1    2    0    0 -0.22901437500E+01 -0.37910663916E+01  0.14247603596E+04  0.14248023369E+04  0.10000000000E+02 0. -1.
</event>
<event>
 5    1  0.1360042E-008  0.3805704E+03  0.7957747E-01  0.3448679E+00
         13   -1    0    0    0    0  0.00000000000E+00  0.00000000000E+00  0.14999999963E+04  0.15000000000E+04  0.10566000000E+00 0.  1.
        994   -1    0    0    0    0 -0.00000000000E+00 -0.00000000000E+00  0.11368683772E-12  0.17120000000E+03  0.17120000000E+03 0.  0.
         13    1    1    2    0    0 -0.54738230842E+01  0.32664627558E+02  0.11785663214E+03  0.12242196509E+03  0.10566000000E+00 0.  1.
        994    1    1    2    0    0 -0.18890116084E+02 -0.56597193063E+02  0.15816833428E+02  0.18198816162E+03  0.17120000000E+03 0.  0.
        998    1    1    2    0    0  0.24363939168E+02  0.23932565506E+02  0.13663265307E+04  0.13667898733E+04  0.10000000000E+02 0.  1.
</event>
<event>
 5    1  0.1360042E-008  0.3848151E+03  0.7957747E-01  0.3430457E+00
         13   -1    0    0    0    0  0.00000000000E+00  0.00000000000E+00  0.14999999963E+04  0.15000000000E+04  0.10566000000E+00 0. -1.
        994   -1    0    0    0    0 -0.00000000000E+00 -0.00000000000E+00  0.11368683772E-12  0.17120000000E+03  0.17120000000E+03 0.  0.
         13    1    1    2    0    0  0.14946369453E+02  0.11280601662E+01  0.70071177504E+02  0.71656455120E+02  0.10566000000E+00 0. -1.
        994    1    1    2    0    0  0.81535511566E+00  0.66411443968E+01  0.18692949591E+01  0.17134089957E+03  0.17120000000E+03 0.  0.
        998    1    1    2    0    0 -0.15761724568E+02 -0.77692045630E+01  0.14280595238E+04  0.14282026453E+04  0.10000000000E+02 0. -1.
</event>
<event>
 5    1  0.1360042E-008  0.3818377E+03  0.7957747E-01  0.3443196E+00
         13   -1    0    0    0    0  0.00000000000E+00  0.00000000000E+00  0.14999999963E+04  0.15000000000E+04  0.10566000000E+00 0. -1.
        994   -1    0    0    0    0 -0.00000000000E+00 -0.00000000000E+00  0.11368683772E-12  0.17120000000E+03  0.17120000000E+03 0.  0.
         13    1    1    2    0    0  0.42269083075E+01 -0.14265055346E+02  0.32213700254E+02  0.35483689294E+02  0.10566000000E+00 0. -1.
        994    1    1    2    0    0 -0.95075317464E+01  0.17894608973E+02  0.45738926644E+01  0.17245570644E+03  0.17120000000E+03 0.  0.
        998    1    1    2    0    0  0.52806234389E+01 -0.36295536273E+01  0.14632124034E+04  0.14632606043E+04  0.10000000000E+02 0. -1.
</event>
<event>
 5    1  0.1360042E-008  0.3841046E+03  0.7957747E-01  0.3433479E+00
         13   -1    0    0    0    0  0.00000000000E+00  0.00000000000E+00  0.14999999963E+04  0.15000000000E+04  0.10566000000E+00 0.  1.
        994   -1    0    0    0    0 -0.00000000000E+00 -0.00000000000E+00  0.11368683772E-12  0.17120000000E+03  0.17120000000E+03 0.  0.
         13    1    1    2    0    0 -0.40751870749E+01  0.20435414931E+02  0.11770366569E+03  0.11953400107E+03  0.10566000000E+00 0.  1.
        994    1    1    2    0    0 -0.62599553066E+01  0.13132598920E+01  0.22103070934E+01  0.17133370115E+03  0.17120000000E+03 0.  0.
        998    1    1    2    0    0  0.10335142382E+02 -0.21748674823E+02  0.13800860235E+04  0.13803322978E+04  0.10000000000E+02 0.  1.
</event>
<event>
 5    1  0.1360042E-008  0.3725083E+03  0.7957747E-01  0.3484442E+00
         13   -1    0    0    0    0  0.00000000000E+00  0.00000000000E+00  0.14999999963E+04  0.15000000000E+04  0.10566000000E+00 0.  1.
        994   -1    0    0    0    0 -0.00000000000E+00 -0.00000000000E+00  0.11368683772E-12  0.17120000000E+03  0.17120000000E+03 0.  0.
         13    1    1    2    0    0 -0.39480088798E+02 -0.49746697360E+01  0.90649931668E+02  0.98999222350E+02  0.10566000000E+00 0.  1.
        994    1    1    2    0    0  0.40927406508E+02  0.72182615866E+01  0.13907858368E+02  0.17672018682E+03  0.17120000000E+03 0.  0.
        998    1    1    2    0    0 -0.14473177098E+01 -0.22435918506E+01  0.13954422062E+04  0.13954805908E+04  0.10000000000E+02 0.  1.
</event>
<event>
 5    1  0.1360042E-008  0.3819996E+03  0.7957747E-01  0.3442498E+00
         13   -1    0    0    0    0  0.00000000000E+00  0.00000000000E+00  0.14999999963E+04  0.15000000000E+04  0.10566000000E+00 0.  1.
        994   -1    0    0    0    0 -0.00000000000E+00 -0.00000000000E+00  0.11368683772E-12  0.17120000000E+03  0.17120000000E+03 0.  0.
         13    1    1    2    0    0 -0.83032629575E+01 -0.11918580661E+02  0.31983717615E+02  0.35127853582E+02  0.10566000000E+00 0.  1.
        994    1    1    2    0    0  0.12813104214E+02  0.97491066604E+01  0.39884909580E+01  0.17200165342E+03  0.17120000000E+03 0.  0.
        998    1    1    2    0    0 -0.45098412565E+01  0.21694740003E+01  0.14640277877E+04  0.14640704930E+04  0.10000000000E+02 0.  1.
</event>
<event>
 5    1  0.1360042E-008  0.3783469E+03  0.7957747E-01  0.3458388E+00
         13   -1    0    0    0    0  0.00000000000E+00  0.00000000000E+00  0.14999999963E+04  0.15000000000E+04  0.10566000000E+00 0. -1.
        994   -1    0    0    0    0 -0.00000000000E+00 -0.00000000000E+00  0.11368683772E-12  0.17120000000E+03  0.17120000000E+03 0.  0.
         13    1    1    2    0    0 -0.38743908840E+02  0.68576013933E+02  0.47331486643E+03  0.47982364896E+03  0.10566000000E+00 0. -1.
        994    1    1    2    0    0  0.30130626692E+02 -0.63309765252E+02  0.21675881521E+02  0.18626664994E+03  0.17120000000E+03 0.  0.
        998    1    1    2    0    0  0.86132821475E+01 -0.52662486804E+01  0.10050092483E+04  0.10051097011E+04  0.10000000000E+02 0. -1.
</event>
<event>
 5    1  0.1360042E-008  0.3693905E+03  0.7957747E-01  0.3498697E+00
         13   -1    0    0    0    0  0.00000000000E+00  0.00000000000E+00  0.14999999963E+04  0.15000000000E+04  0.10566000000E+00 0. -1.
        994   -1    0    0    0    0 -0.00000000000E+00 -0.00000000000E+00  0.11368683772E-12  0.17120000000E+03  0.17120000000E+03 0.  0.
         13    1    1    2    0    0 -0.41944180347E+02  0.50083781154E+02  0.23990819554E+03  0.24864362621E+03  0.10566000000E+00 0. -1.
        994    1    1    2    0    0  0.25470721427E+02 -0.85167869226E+01  0.12091252678E+02  0.17371508772E+03  0.17120000000E+03 0.  0.
        998    1    1    2    0    0  0.16473458921E+02 -0.41566994231E+02  0.12480005481E+04  0.12488412861E+04  0.10000000000E+02 0. -1.
</event>
<event>
 5    1  0.1360042E-008  0.3708178E+03  0.7957747E-01  0.3492141E+00
         13   -1    0    0    0    0  0.00000000000E+00  0.00000000000E+00  0.14999999963E+04  0.15000000000E+04  0.10566000000E+00 0. -1.
        994   -1    0    0    0    0 -0.00000000000E+00 -0.00000000000E+00  0.11368683772E-12  0.17120000000E+03  0.17120000000E+03 0.  0.
         13    1    1    2    0    0  0.27978405334E+02  0.23175678720E+02  0.68899984943E+02  0.77891734725E+02  0.10566000000E+00 0. -1.
        994    1    1    2    0    0 -0.17144548124E+02 -0.32904073215E+02  0.13603565941E+02  0.17570176599E+03  0.17120000000E+03 0.  0.
        998    1    1    2    0    0 -0.10833857210E+02  0.97283944947E+01  0.14174964454E+04  0.14176064993E+04  0.10000000000E+02 0. -1.
</event>
<event>
 5    1  0.1548683E-008  0.3849835E+03  0.7957747E-01  0.3429742E+00
         13   -1    0    0    0    0  0.00000000000E+00  0.00000000000E+00  0.14999999963E+04  0.15000000000E+04  0.10566000000E+00 0. -1.
        994   -1    0    0    0    0 -0.00000000000E+00 -0.00000000000E+00  0.11368683772E-12  0.17120000000E+03  0.17120000000E+03 0.  0.
         13    1    1    2    0    0 -0.10465165108E+02  0.61801662083E+01  0.48101230789E+02  0.49613039643E+02  0.10566000000E+00 0. -1.
        994    1    1    2    0    0 -0.39124464822E+01  0.11570307635E+01  0.16930877894E+01  0.17125697797E+03  0.17120000000E+03 0.  0.
        998    1    1    2    0    0  0.14377611590E+02 -0.73371969718E+01  0.14502056777E+04  0.14503299824E+04  0.10000000000E+02 0. -1.
</event>
<event>
 5    1  0.1360042E-008  0.3849329E+03  0.7957747E-01  0.3429957E+00
         13   -1    0    0    0    0  0.00000000000E+00  0.00000000000E+00  0.14999999963E+04  0.15000000000E+04  0.10566000000E+00 0. -1.
        994   -1    0    0    0    0 -0.00000000000E+00 -0.00000000000E+00  0.11368683772E-12  0.17120000000E+03  0.17120000000E+03 0.  0.
         13    1    1    2    0    0  0.92212785705E-01 -0.10975344826E+02  0.36828875949E+02  0.38429727620E+02  0.10566000000E+00 0. -1.
        994    1    1    2    0    0  0.28247811302E+01  0.28153920616E+01  0.17157936459E+01  0.17125504305E+03  0.17120000000E+03 0.  0.
        998    1    1    2    0    0 -0.29169939159E+01  0.81599527643E+01  0.14614553267E+04  0.14615152293E+04  0.10000000000E+02 0. -1.
</event>
<event>
 5    1  0.1360042E-008  0.3861552E+03  0.7957747E-01  0.3424788E+00
         13   -1    0    0    0    0  0.00000000000E+00  0.00000000000E+00  0.14999999963E+04  0.15000000000E+04  0.10566000000E+00 0.  1.
        994   -1    0    0    0    0 -0.00000000000E+00 -0.00000000000E+00  0.11368683772E-12  0.17120000000E+03  0.17120000000E+03 0.  0.
         13    1    1    2    0    0 -0.12677479780E+02 -0.55811363408E+00  0.70116313212E+02  0.71255445595E+02  0.10566000000E+00 0.  1.
        994    1    1    2    0    0  0.20966320381E+02 -0.75815438115E+01  0.26879741250E+01  0.17266653295E+03  0.17120000000E+03 0.  0.
        998    1    1    2    0    0 -0.82888406011E+01  0.81396574455E+01  0.14271957089E+04  0.14272780215E+04  0.10000000000E+02 0.  1.
</event>
<event>
 5    1  0.1360042E-008  0.3860928E+03  0.7957747E-01  0.3425051E+00
         13   -1    0    0    0    0  0.00000000000E+00  0.00000000000E+00  0.14999999963E+04  0.15000000000E+04  0.10566000000E+00 0.  1.
        994   -1    0    0    0    0 -0.00000000000E+00 -0.00000000000E+00  0.11368683772E-12  0.17120000000E+03  0.17120000000E+03 0.  0.
         13    1    1    2    0    0 -0.73301708588E+01  0.72643679975E+01  0.46486679548E+02  0.47618536167E+02  0.10566000000E+00 0.  1.
        994    1    1    2    0    0  0.78212948762E+01 -0.16223992066E+02  0.21522897641E+01  0.17215824965E+03  0.17120000000E+03 0.  0.
        998    1    1    2    0    0 -0.49112401735E+00  0.89596240689E+01  0.14513610270E+04  0.14514232142E+04  0.10000000000E+02 0.  1.
</event>
<event>
 5    1  0.1360042E-008  0.3861286E+03  0.7957747E-01  0.3424900E+00
         13   -1    0    0    0    0  0.00000000000E+00  0.00000000000E+00  0.14999999963E+04  0.15000000000E+04  0.10566000000E+00 0. -1.
        994   -1    0    0    0    0 -0.00000000000E+00 -0.00000000000E+00  0.11368683772E-12  0.17120000000E+03  0.17120000000E+03 0.  0.
         13    1    1    2    0    0  0.11711905528E+02  0.17337507721E+01  0.70126057171E+02  0.71118560737E+02  0.10566000000E+00 0. -1.
        994    1    1    2    0    0  0.16265497653E+00 -0.96692156589E+01  0.13773387707E+01  0.17147844544E+03  0.17120000000E+03 0.  0.
        998    1    1    2    0    0 -0.11874560504E+02  0.79354648868E+01  0.14284966003E+04  0.14286029938E+04  0.10000000000E+02 0. -1.
</event>
<event>
 5    1  0.1360042E-008  0.3841306E+03  0.7957747E-01  0.3433368E+00
         13   -1    0    0    0    0  0.00000000000E+00  0.00000000000E+00  0.14999999963E+04  0.15000000000E+04  0.10566000000E+00 0.  1.
        994   -1    0    0    0    0 -0.00000000000E+00 -0.00000000000E+00  0.11368683772E-12  0.17120000000E+03  0.17120000000E+03 0.  0.
         13    1    1    2    0    0 -0.17394344636E+01  0.18602134465E+02  0.99568018188E+02  0.10130580659E+03  0.10566000000E+00 0.  1.
        994    1    1    2    0    0  0.55300172912E+01  0.11661437894E+02  0.26119132375E+01  0.17170565604E+03  0.17120000000E+03 0.  0.
        998    1    1    2    0    0 -0.37905828276E+01 -0.30263572359E+02  0.13978200649E+04  0.13981885374E+04  0.10000000000E+02 0.  1.
</event>
<event>
 5    1  0.1360042E-008  0.3851619E+03  0.7957747E-01  0.3428986E+00
         13   -1    0    0    0    0  0.00000000000E+00  0.00000000000E+00  0.14999999963E+04  0.15000000000E+04  0.10566000000E+00 0.  1.
        994   -1    0    0    0    0 -0.00000000000E+00 -0.00000000000E+00  0.11368683772E-12  0.17120000000E+03  0.17120000000E+03 0.  0.
         13    1    1    2    0    0 -0.73299583707E+01 -0.13957415029E+02  0.86663939906E+02  0.88086249597E+02  0.10566000000E+00 0.  1.
        994    1    1    2    0    0 -0.62657528936E+01  0.36836228642E+01  0.17234657866E+01  0.17136288709E+03  0.17120000000E+03 0.  0.
        998    1    1    2    0    0  0.13595711264E+02  0.10273792165E+02  0.14116125906E+04  0.14117508633E+04  0.10000000000E+02 0.  1.
</event>
<event>
 5    1  0.1360042E-008  0.3933496E+03  0.7957747E-01  0.3395015E+00
         13   -1    0    0    0    0  0.00000000000E+00  0.00000000000E+00  0.14999999963E+04  0.15000000000E+04  0.10566000000E+00 0. -1.
        994   -1    0    0    0    0 -0.00000000000E+00 -0.00000000000E+00  0.11368683772E-12  0.17120000000E+03  0.17120000000E+03 0.  0.
         13    1    1    2    0    0 -0.74336849958E+01 -0.67428356435E+02  0.85249204259E+02  0.10894622947E+03  0.10566000000E+00 0. -1.
        994    1    1    2    0    0  0.69921037024E+01  0.61996040959E+02  0.38854385668E+02  0.18631023025E+03  0.17120000000E+03 0.  0.
        998    1    1    2    0    0  0.44158129338E+00  0.54323154757E+01  0.13758964064E+04  0.13759435403E+04  0.10000000000E+02 0. -1.
</event>
<event>
 5    1  0.1360042E-008  0.3791493E+03  0.7957747E-01  0.3454871E+00
         13   -1    0    0    0    0  0.00000000000E+00  0.00000000000E+00  0.14999999963E+04  0.15000000000E+04  0.10566000000E+00 0. -1.
        994   -1    0    0    0    0 -0.00000000000E+00 -0.00000000000E+00  0.11368683772E-12  0.17120000000E+03  0.17120000000E+03 0.  0.
         13    1    1    2    0    0  0.52244330059E+02 -0.96007294331E+01  0.78841123660E+02  0.95066176809E+02  0.10566000000E+00 0. -1.
        994    1    1    2    0    0 -0.55029590080E+02  0.57179696478E+01  0.27001740137E+02  0.18193263845E+03  0.17120000000E+03 0.  0.
        998    1    1    2    0    0  0.27852600204E+01  0.38827597853E+01  0.13941571325E+04  0.13942011847E+04  0.10000000000E+02 0. -1.
</event>
<event>
 5    1  0.1360042E-008  0.3836509E+03  0.7957747E-01  0.3435414E+00
         13   -1    0    0    0    0  0.00000000000E+00  0.00000000000E+00  0.14999999963E+04  0.15000000000E+04  0.10566000000E+00 0.  1.
        994   -1    0    0    0    0 -0.00000000000E+00 -0.00000000000E+00  0.11368683772E-12  0.17120000000E+03  0.17120000000E+03 0.  0.
         13    1    1    2    0    0  0.13633184398E+02  0.59499087988E+01  0.47167922802E+02  0.49457954234E+02  0.10566000000E+00 0.  1.
        994    1    1    2    0    0 -0.12478272702E+02  0.36715594054E+00  0.28163753001E+01  0.17167764579E+03  0.17120000000E+03 0.  0.
        998    1    1    2    0    0 -0.11549116956E+01 -0.63170647393E+01  0.14500156982E+04  0.14500644000E+04  0.10000000000E+02 0.  1.
</event>
<event>
 5    1  0.1360042E-008  0.3807089E+03  0.7957747E-01  0.3448078E+00
         13   -1    0    0    0    0  0.00000000000E+00  0.00000000000E+00  0.14999999963E+04  0.15000000000E+04  0.10566000000E+00 0. -1.
        994   -1    0    0    0    0 -0.00000000000E+00 -0.00000000000E+00  0.11368683772E-12  0.17120000000E+03  0.17120000000E+03 0.  0.
         13    1    1    2    0    0  0.52395927634E+01 -0.99481275454E+01  0.15361351154E+02  0.19036828709E+02  0.10566000000E+00 0. -1.
        994    1    1    2    0    0 -0.52219428521E+01 -0.11690797015E+00  0.38667481937E+01  0.17132330284E+03  0.17120000000E+03 0.  0.
        998    1    1    2    0    0 -0.17649911313E-01  0.10065035516E+02  0.14807718969E+04  0.14808398685E+04  0.10000000000E+02 0. -1.
</event>
<event>
 5    1  0.1360042E-008  0.3796448E+03  0.7957747E-01  0.3452707E+00
         13   -1    0    0    0    0  0.00000000000E+00  0.00000000000E+00  0.14999999963E+04  0.15000000000E+04  0.10566000000E+00 0.  1.
        994   -1    0    0    0    0 -0.00000000000E+00 -0.00000000000E+00  0.11368683772E-12  0.17120000000E+03  0.17120000000E+03 0.  0.
         13    1    1    2    0    0 -0.15603429358E+01 -0.12564010776E+02  0.16724726613E+02  0.20976574581E+02  0.10566000000E+00 0.  1.
        994    1    1    2    0    0  0.15848526840E+01  0.93552221062E+01  0.46139500691E+01  0.17152481008E+03  0.17120000000E+03 0.  0.
        998    1    1    2    0    0 -0.24509748203E-01  0.32087886696E+01  0.14786613196E+04  0.14786986153E+04  0.10000000000E+02 0.  1.
</event>
<event>
 5    1  0.1360042E-008  0.3786819E+03  0.7957747E-01  0.3456918E+00
         13   -1    0    0    0    0  0.00000000000E+00  0.00000000000E+00  0.14999999963E+04  0.15000000000E+04  0.10566000000E+00 0.  1.
        994   -1    0    0    0    0 -0.00000000000E+00 -0.00000000000E+00  0.11368683772E-12  0.17120000000E+03  0.17120000000E+03 0.  0.
         13    1    1    2    0    0 -0.10064967670E+02  0.20943062178E+02  0.52088719118E+02  0.57036490521E+02  0.10566000000E+00 0.  1.
        994    1    1    2    0    0  0.85684591258E+01 -0.26085985149E+02  0.73353511666E+01  0.17354291829E+03  0.17120000000E+03 0.  0.
        998    1    1    2    0    0  0.14965085442E+01  0.51429229718E+01  0.14405759260E+04  0.14406205912E+04  0.10000000000E+02 0.  1.
</event>
<event>
 5    1  0.1360042E-008  0.3857746E+03  0.7957747E-01  0.3426394E+00
         13   -1    0    0    0    0  0.00000000000E+00  0.00000000000E+00  0.14999999963E+04  0.15000000000E+04  0.10566000000E+00 0.  1.
        994   -1    0    0    0    0 -0.00000000000E+00 -0.00000000000E+00  0.11368683772E-12  0.17120000000E+03  0.17120000000E+03 0.  0.
         13    1    1    2    0    0  0.35281254833E+01  0.10168558674E+02  0.47072545355E+02  0.48287502992E+02  0.10566000000E+00 0.  1.
        994    1    1    2    0    0 -0.32029738194E+01 -0.57601959694E+01  0.13885760794E+01  0.17133244597E+03  0.17120000000E+03 0.  0.
        998    1    1    2    0    0 -0.32515166394E+00 -0.44083627045E+01  0.14515388748E+04  0.14515800510E+04  0.10000000000E+02 0.  1.
</event>
<event>
 5    1  0.1360042E-008  0.3728685E+03  0.7957747E-01  0.3482811E+00
         13   -1    0    0    0    0  0.00000000000E+00  0.00000000000E+00  0.14999999963E+04  0.15000000000E+04  0.10566000000E+00 0. -1.
        994   -1    0    0    0    0 -0.00000000000E+00 -0.00000000000E+00  0.11368683772E-12  0.17120000000E+03  0.17120000000E+03 0.  0.
         13    1    1    2    0    0 -0.64545958426E+01  0.22992583330E+02  0.35551895350E+02  0.42828368200E+02  0.10566000000E+00 0. -1.
        994    1    1    2    0    0  0.56083920828E+01  0.75875475037E+01  0.80822474847E+01  0.17165018981E+03  0.17120000000E+03 0.  0.
        998    1    1    2    0    0  0.84620375976E+00 -0.30580130834E+02  0.14563658534E+04  0.14567214420E+04  0.10000000000E+02 0. -1.
</event>
<event>
 5    1  0.1360042E-008  0.3779021E+03  0.7957747E-01  0.3460344E+00
         13   -1    0    0    0    0  0.00000000000E+00  0.00000000000E+00  0.14999999963E+04  0.15000000000E+04  0.10566000000E+00 0.  1.
        994   -1    0    0    0    0 -0.00000000000E+00 -0.00000000000E+00  0.11368683772E-12  0.17120000000E+03  0.17120000000E+03 0.  0.
         13    1    1    2    0    0  0.52790299711E+01  0.33910179933E+02  0.11412667776E+03  0.11917498983E+03  0.10566000000E+00 0.  1.
        994    1    1    2    0    0 -0.23386963640E+02 -0.12906687889E+02  0.76015869601E+01  0.17343804884E+03  0.17120000000E+03 0.  0.
        998    1    1    2    0    0  0.18107933669E+02 -0.21003492044E+02  0.13782717316E+04  0.13785869613E+04  0.10000000000E+02 0.  1.
</event>
<event>
 5    1  0.1360042E-008  0.3802342E+03  0.7957747E-01  0.3450140E+00
         13   -1    0    0    0    0  0.00000000000E+00  0.00000000000E+00  0.14999999963E+04  0.15000000000E+04  0.10566000000E+00 0.  1.
        994   -1    0    0    0    0 -0.00000000000E+00 -0.00000000000E+00  0.11368683772E-12  0.17120000000E+03  0.17120000000E+03 0.  0.
         13    1    1    2    0    0  0.24983255548E+02  0.99647413861E+00  0.69544867236E+02  0.73903015780E+02  0.10566000000E+00 0.  1.
        994    1    1    2    0    0 -0.37173076886E+02 -0.56733241535E+01  0.87527634093E+01  0.17549950176E+03  0.17120000000E+03 0.  0.
        998    1    1    2    0    0  0.12189821339E+02  0.46768500149E+01  0.14217023656E+04  0.14217974825E+04  0.10000000000E+02 0.  1.
</event>
<event>
 5    1  0.1360042E-008  0.3698141E+03  0.7957747E-01  0.3496746E+00
         13   -1    0    0    0    0  0.00000000000E+00  0.00000000000E+00  0.14999999963E+04  0.15000000000E+04  0.10566000000E+00 0.  1.
        994   -1    0    0    0    0 -0.00000000000E+00 -0.00000000000E+00  0.11368683772E-12  0.17120000000E+03  0.17120000000E+03 0.  0.
         13    1    1    2    0    0 -0.10504293219E+03 -0.63820509264E+02  0.64572259769E+03  0.65731633126E+03  0.10566000000E+00 0.  1.
        994    1    1    2    0    0  0.42114780729E+02  0.10379129732E+03  0.56057524189E+02  0.21212773080E+03  0.17120000000E+03 0.  0.
        998    1    1    2    0    0  0.62928151464E+02 -0.39970788054E+02  0.79821987440E+03  0.80175593795E+03  0.10000000000E+02 0.  1.
</event>
<event>
 5    1  0.1360042E-008  0.3845741E+03  0.7957747E-01  0.3431480E+00
         13   -1    0    0    0    0  0.00000000000E+00  0.00000000000E+00  0.14999999963E+04  0.15000000000E+04  0.10566000000E+00 0. -1.
        994   -1    0    0    0    0 -0.00000000000E+00 -0.00000000000E+00  0.11368683772E-12  0.17120000000E+03  0.17120000000E+03 0.  0.
         13    1    1    2    0    0 -0.14646037750E+02 -0.62331121298E+01  0.70282046253E+02  0.72062023966E+02  0.10566000000E+00 0. -1.
        994    1    1    2    0    0  0.71320407097E+01 -0.14057321265E+00  0.20093247395E+01  0.17136033132E+03  0.17120000000E+03 0.  0.
        998    1    1    2    0    0  0.75139970402E+01  0.63736853425E+01  0.14277086253E+04  0.14277776447E+04  0.10000000000E+02 0. -1.
</event>
<event>
 5    1  0.1360042E-008  0.3780389E+03  0.7957747E-01  0.3459742E+00
         13   -1    0    0    0    0  0.00000000000E+00  0.00000000000E+00  0.14999999963E+04  0.15000000000E+04  0.10566000000E+00 0.  1.
        994   -1    0    0    0    0 -0.00000000000E+00 -0.00000000000E+00  0.11368683772E-12  0.17120000000E+03  0.17120000000E+03 0.  0.
         13    1    1    2    0    0 -0.26879695480E+02 -0.12810836842E+02  0.22875237125E+02  0.37548944156E+02  0.10566000000E+00 0.  1.
        994    1    1    2    0    0  0.29106045489E+02 -0.14664519642E+02  0.19085082653E+02  0.17531654343E+03  0.17120000000E+03 0.  0.
        998    1    1    2    0    0 -0.22263500090E+01  0.27475356484E+02  0.14580396765E+04  0.14583345124E+04  0.10000000000E+02 0.  1.
</event>
<event>
 5    1  0.1360042E-008  0.3735318E+03  0.7957747E-01  0.3479815E+00
         13   -1    0    0    0    0  0.00000000000E+00  0.00000000000E+00  0.14999999963E+04  0.15000000000E+04  0.10566000000E+00 0. -1.
        994   -1    0    0    0    0 -0.00000000000E+00 -0.00000000000E+00  0.11368683772E-12  0.17120000000E+03  0.17120000000E+03 0.  0.
         13    1    1    2    0    0  0.33872383523E+00 -0.19374621704E+02  0.22413222506E+02  0.29628607918E+02  0.10566000000E+00 0. -1.
        994    1    1    2    0    0 -0.47054350740E+01  0.77342439424E+01  0.77146649135E+01  0.17161269097E+03  0.17120000000E+03 0.  0.
        998    1    1    2    0    0  0.43667112388E+01  0.11640377762E+02  0.14698721089E+04  0.14699587011E+04  0.10000000000E+02 0. -1.
</event>
<event>
 5    1  0.1360042E-008  0.3737650E+03  0.7957747E-01  0.3478765E+00
         13   -1    0    0    0    0  0.00000000000E+00  0.00000000000E+00  0.14999999963E+04  0.15000000000E+04  0.10566000000E+00 0.  1.
        994   -1    0    0    0    0 -0.00000000000E+00 -0.00000000000E+00  0.11368683772E-12  0.17120000000E+03  0.17120000000E+03 0.  0.
         13    1    1    2    0    0  0.48056041630E+02  0.87964232154E+01  0.15692154575E+03  0.16435067046E+03  0.10566000000E+00 0.  1.
        994    1    1    2    0    0 -0.32217966388E+02 -0.10703068647E+02  0.11258590105E+02  0.17489639472E+03  0.17120000000E+03 0.  0.
        998    1    1    2    0    0 -0.15838075242E+02  0.19066454320E+01  0.13318198604E+04  0.13319529348E+04  0.10000000000E+02 0.  1.
</event>
<event>
 5    1  0.1360042E-008  0.3826230E+03  0.7957747E-01  0.3439816E+00
         13   -1    0    0    0    0  0.00000000000E+00  0.00000000000E+00  0.14999999963E+04  0.15000000000E+04  0.10566000000E+00 0. -1.
        994   -1    0    0    0    0 -0.00000000000E+00 -0.00000000000E+00  0.11368683772E-12  0.17120000000E+03  0.17120000000E+03 0.  0.
         13    1    1    2    0    0 -0.16452408462E+02 -0.13800815198E+02  0.72842678924E+02  0.75942157470E+02  0.10566000000E+00 0. -1.
        994    1    1    2    0    0  0.25123908959E+02  0.23465847053E+02  0.67416913721E+01  0.17474766717E+03  0.17120000000E+03 0.  0.
        998    1    1    2    0    0 -0.86715004970E+01 -0.96650318546E+01  0.14204156260E+04  0.14205101754E+04  0.10000000000E+02 0. -1.
</event>
<event>
 5    1  0.1360042E-008  0.3786663E+03  0.7957747E-01  0.3456986E+00
         13   -1    0    0    0    0  0.00000000000E+00  0.00000000000E+00  0.14999999963E+04  0.15000000000E+04  0.10566000000E+00 0. -1.
        994   -1    0    0    0    0 -0.00000000000E+00 -0.00000000000E+00  0.11368683772E-12  0.17120000000E+03  0.17120000000E+03 0.  0.
         13    1    1    2    0    0  0.13511514566E+02 -0.38635987109E+02  0.19621372989E+03  0.20043737049E+03  0.10566000000E+00 0. -1.
        994    1    1    2    0    0 -0.72005661904E+01  0.31669058310E+01  0.50156831654E+01  0.17145400119E+03  0.17120000000E+03 0.  0.
        998    1    1    2    0    0 -0.63109483755E+01  0.35469081278E+02  0.12987705832E+04  0.12993086283E+04  0.10000000000E+02 0. -1.
</event>
<event>
 5    1  0.1360042E-008  0.3779599E+03  0.7957747E-01  0.3460090E+00
         13   -1    0    0    0    0  0.00000000000E+00  0.00000000000E+00  0.14999999963E+04  0.15000000000E+04  0.10566000000E+00 0.  1.
        994   -1    0    0    0    0 -0.00000000000E+00 -0.00000000000E+00  0.11368683772E-12  0.17120000000E+03  0.17120000000E+03 0.  0.
         13    1    1    2    0    0  0.44788282664E+02 -0.23761216234E+02  0.23090982471E+03  0.23641054116E+03  0.10566000000E+00 0.  1.
        994    1    1    2    0    0 -0.75696611694E+02 -0.43912337431E+02  0.31390529049E+02  0.19481549146E+03  0.17120000000E+03 0.  0.
        998    1    1    2    0    0  0.30908329030E+02  0.67673553665E+02  0.12376996425E+04  0.12399739674E+04  0.10000000000E+02 0.  1.
</event>
<event>
 5    1  0.1360042E-008  0.3850573E+03  0.7957747E-01  0.3429429E+00
         13   -1    0    0    0    0  0.00000000000E+00  0.00000000000E+00  0.14999999963E+04  0.15000000000E+04  0.10566000000E+00 0.  1.
        994   -1    0    0    0    0 -0.00000000000E+00 -0.00000000000E+00  0.11368683772E-12  0.17120000000E+03  0.17120000000E+03 0.  0.
         13    1    1    2    0    0 -0.10662362391E+02  0.10842959850E+02  0.70335213692E+02  0.71960469698E+02  0.10566000000E+00 0.  1.
        994    1    1    2    0    0  0.21284034533E+00 -0.19840292093E+02  0.28972161124E+01  0.17237028849E+03  0.17120000000E+03 0.  0.
        998    1    1    2    0    0  0.10449522046E+02  0.89973322432E+01  0.14267675665E+04  0.14268692418E+04  0.10000000000E+02 0.  1.
</event>
<event>
 5    1  0.1360042E-008  0.3829198E+03  0.7957747E-01  0.3438543E+00
         13   -1    0    0    0    0  0.00000000000E+00  0.00000000000E+00  0.14999999963E+04  0.15000000000E+04  0.10566000000E+00 0.  1.
        994   -1    0    0    0    0 -0.00000000000E+00 -0.00000000000E+00  0.11368683772E-12  0.17120000000E+03  0.17120000000E+03 0.  0.
         13    1    1    2    0    0 -0.19654235695E+02  0.15691156337E+02  0.13917993864E+03  0.14143396994E+03  0.10566000000E+00 0.  1.
        994    1    1    2    0    0  0.21093671168E+01  0.12773436929E+02  0.32216005485E+01  0.17171904038E+03  0.17120000000E+03 0.  0.
        998    1    1    2    0    0  0.17544868578E+02 -0.28464593266E+02  0.13575984571E+04  0.13580469897E+04  0.10000000000E+02 0.  1.
</event>
<event>
 5    1  0.1360042E-008  0.3814660E+03  0.7957747E-01  0.3444800E+00
         13   -1    0    0    0    0  0.00000000000E+00  0.00000000000E+00  0.14999999963E+04  0.15000000000E+04  0.10566000000E+00 0.  1.
        994   -1    0    0    0    0 -0.00000000000E+00 -0.00000000000E+00  0.11368683772E-12  0.17120000000E+03  0.17120000000E+03 0.  0.
         13    1    1    2    0    0 -0.69213073005E+01 -0.33003117908E+02  0.17053664856E+03  0.17383863194E+03  0.10566000000E+00 0.  1.
        994    1    1    2    0    0 -0.21312468165E+02  0.22217976318E+02  0.65546774858E+01  0.17406970893E+03  0.17120000000E+03 0.  0.
        998    1    1    2    0    0  0.28233775466E+02  0.10785141589E+02  0.13229086702E+04  0.13232916591E+04  0.10000000000E+02 0.  1.
</event>
<event>
 5    1  0.1360042E-008  0.3779289E+03  0.7957747E-01  0.3460226E+00
         13   -1    0    0    0    0  0.00000000000E+00  0.00000000000E+00  0.14999999963E+04  0.15000000000E+04  0.10566000000E+00 0. -1.
        994   -1    0    0    0    0 -0.00000000000E+00 -0.00000000000E+00  0.11368683772E-12  0.17120000000E+03  0.17120000000E+03 0.  0.
         13    1    1    2    0    0  0.36241752868E+01 -0.21255805643E+02  0.46285182552E+02  0.51061465001E+02  0.10566000000E+00 0. -1.
        994    1    1    2    0    0  0.17406748214E+01 -0.87358395547E+01  0.54494041282E+01  0.17151816477E+03  0.17120000000E+03 0.  0.
        998    1    1    2    0    0 -0.53648501082E+01  0.29991645198E+02  0.14482654096E+04  0.14486203702E+04  0.10000000000E+02 0. -1.
</event>
<event>
 5    1  0.1360042E-008  0.3793549E+03  0.7957747E-01  0.3453972E+00
         13   -1    0    0    0    0  0.00000000000E+00  0.00000000000E+00  0.14999999963E+04  0.15000000000E+04  0.10566000000E+00 0.  1.
        994   -1    0    0    0    0 -0.00000000000E+00 -0.00000000000E+00  0.11368683772E-12  0.17120000000E+03  0.17120000000E+03 0.  0.
         13    1    1    2    0    0 -0.11568671629E+01 -0.13592481921E+02  0.19033637048E+02  0.23417608967E+02  0.10566000000E+00 0.  1.
        994    1    1    2    0    0  0.40454750958E+01  0.82803123511E+01  0.47436967231E+01  0.17151347498E+03  0.17120000000E+03 0.  0.
        998    1    1    2    0    0 -0.28886079329E+01  0.53121695704E+01  0.14762226625E+04  0.14762689161E+04  0.10000000000E+02 0.  1.
</event>
<event>
 5    1  0.1360042E-008  0.3809186E+03  0.7957747E-01  0.3447168E+00
         13   -1    0    0    0    0  0.00000000000E+00  0.00000000000E+00  0.14999999963E+04  0.15000000000E+04  0.10566000000E+00 0.  1.
        994   -1    0    0    0    0 -0.00000000000E+00 -0.00000000000E+00  0.11368683772E-12  0.17120000000E+03  0.17120000000E+03 0.  0.
         13    1    1    2    0    0  0.61791935260E+01  0.91956646985E+01  0.15104606444E+02  0.18732404591E+02  0.10566000000E+00 0.  1.
        994    1    1    2    0    0 -0.28294510998E+01 -0.96571003074E+01  0.40077372801E+01  0.17154231938E+03  0.17120000000E+03 0.  0.
        998    1    1    2    0    0 -0.33497424262E+01  0.46143560888E+00  0.14808876526E+04  0.14809252760E+04  0.10000000000E+02 0.  1.
</event>
<event>
 5    1  0.1360042E-008  0.3823622E+03  0.7957747E-01  0.3440937E+00
         13   -1    0    0    0    0  0.00000000000E+00  0.00000000000E+00  0.14999999963E+04  0.15000000000E+04  0.10566000000E+00 0.  1.
        994   -1    0    0    0    0 -0.00000000000E+00 -0.00000000000E+00  0.11368683772E-12  0.17120000000E+03  0.17120000000E+03 0.  0.
         13    1    1    2    0    0 -0.10581509079E+02  0.10615168125E+01  0.17045643567E+02  0.20091298638E+02  0.10566000000E+00 0.  1.
        994    1    1    2    0    0  0.26935025857E+02 -0.46012271768E+01  0.54260925120E+01  0.17345186476E+03  0.17120000000E+03 0.  0.
        998    1    1    2    0    0 -0.16353516778E+02  0.35397103644E+01  0.14775282602E+04  0.14776568366E+04  0.10000000000E+02 0.  1.
</event>
<event>
 5    1  0.1360042E-008  0.3835644E+03  0.7957747E-01  0.3435783E+00
         13   -1    0    0    0    0  0.00000000000E+00  0.00000000000E+00  0.14999999963E+04  0.15000000000E+04  0.10566000000E+00 0.  1.
        994   -1    0    0    0    0 -0.00000000000E+00 -0.00000000000E+00  0.11368683772E-12  0.17120000000E+03  0.17120000000E+03 0.  0.
         13    1    1    2    0    0 -0.10259165111E+02 -0.10609311391E+02  0.46218860847E+02  0.48518060751E+02  0.10566000000E+00 0.  1.
        994    1    1    2    0    0  0.34027260335E+01  0.77389682332E+01  0.25807176228E+01  0.17142803236E+03  0.17120000000E+03 0.  0.
        998    1    1    2    0    0  0.68564390778E+01  0.28703431578E+01  0.14512004178E+04  0.14512539069E+04  0.10000000000E+02 0.  1.
</event>
<event>
 5    1  0.1360042E-008  0.3813045E+03  0.7957747E-01  0.3445498E+00
         13   -1    0    0    0    0  0.00000000000E+00  0.00000000000E+00  0.14999999963E+04  0.15000000000E+04  0.10566000000E+00 0. -1.
        994   -1    0    0    0    0 -0.00000000000E+00 -0.00000000000E+00  0.11368683772E-12  0.17120000000E+03  0.17120000000E+03 0.  0.
         13    1    1    2    0    0  0.40067073999E+02  0.12131145712E+02  0.20573996265E+03  0.20995589658E+03  0.10566000000E+00 0. -1.
        994    1    1    2    0    0 -0.42427087792E+02 -0.32225691625E+02  0.12982713168E+02  0.17976802780E+03  0.17120000000E+03 0.  0.
        998    1    1    2    0    0  0.23600137937E+01  0.20094545913E+02  0.12812773205E+04  0.12814760756E+04  0.10000000000E+02 0. -1.
</event>
<event>
 5    1  0.1561457E-008  0.3838956E+03  0.7957747E-01  0.3434370E+00
         13   -1    0    0    0    0  0.00000000000E+00  0.00000000000E+00  0.14999999963E+04  0.15000000000E+04  0.10566000000E+00 0. -1.
        994   -1    0    0    0    0 -0.00000000000E+00 -0.00000000000E+00  0.11368683772E-12  0.17120000000E+03  0.17120000000E+03 0.  0.
         13    1    1    2    0    0 -0.84841919852E+00 -0.11374060217E+02  0.28828537176E+02  0.31002980191E+02  0.10566000000E+00 0. -1.
        994    1    1    2    0    0  0.17209874182E+01  0.11165539552E+02  0.26008204554E+01  0.17159206083E+03  0.17120000000E+03 0.  0.
        998    1    1    2    0    0 -0.87256821970E+00  0.20852066469E+00  0.14685706386E+04  0.14686049590E+04  0.10000000000E+02 0. -1.
</event>
<event>
 5    1  0.1360042E-008  0.3781275E+03  0.7957747E-01  0.3459352E+00
         13   -1    0    0    0    0  0.00000000000E+00  0.00000000000E+00  0.14999999963E+04  0.15000000000E+04  0.10566000000E+00 0. -1.
        994   -1    0    0    0    0 -0.00000000000E+00 -0.00000000000E+00  0.11368683772E-12  0.17120000000E+03  0.17120000000E+03 0.  0.
         13    1    1    2    0    0  0.16409056120E+02  0.83925206471E+01  0.30577062521E+02  0.35702373058E+02  0.10566000000E+00 0. -1.
        994    1    1    2    0    0 -0.18345214438E+02 -0.10882581725E+02  0.66132650303E+01  0.17265037721E+03  0.17120000000E+03 0.  0.
        998    1    1    2    0    0  0.19361583187E+01  0.24900610778E+01  0.14628096687E+04  0.14628472497E+04  0.10000000000E+02 0. -1.
</event>
<event>
 5    1  0.1360042E-008  0.3838969E+03  0.7957747E-01  0.3434364E+00
         13   -1    0    0    0    0  0.00000000000E+00  0.00000000000E+00  0.14999999963E+04  0.15000000000E+04  0.10566000000E+00 0. -1.
        994   -1    0    0    0    0 -0.00000000000E+00 -0.00000000000E+00  0.11368683772E-12  0.17120000000E+03  0.17120000000E+03 0.  0.
         13    1    1    2    0    0  0.16707003054E+02 -0.12077834463E+02  0.10206215517E+03  0.10412344942E+03  0.10566000000E+00 0. -1.
        994    1    1    2    0    0 -0.34232829734E+01  0.51081621149E+01  0.23036171114E+01  0.17132588490E+03  0.17120000000E+03 0.  0.
        998    1    1    2    0    0 -0.13283720080E+02  0.69696723480E+01  0.13956342240E+04  0.13957506657E+04  0.10000000000E+02 0. -1.
</event>
<event>
 5    1  0.1360042E-008  0.3812270E+03  0.7957747E-01  0.3445833E+00
         13   -1    0    0    0    0  0.00000000000E+00  0.00000000000E+00  0.14999999963E+04  0.15000000000E+04  0.10566000000E+00 0.  1.
        994   -1    0    0    0    0 -0.00000000000E+00 -0.00000000000E+00  0.11368683772E-12  0.17120000000E+03  0.17120000000E+03 0.  0.
         13    1    1    2    0    0 -0.71130562952E+02  0.18604476524E+03  0.74353131413E+03  0.76974738578E+03  0.10566000000E+00 0.  1.
        994    1    1    2    0    0  0.92378213736E+02 -0.23235039645E+03  0.25145195025E+03  0.39377400166E+03  0.17120000000E+03 0.  0.
        998    1    1    2    0    0 -0.21247650785E+02  0.46305631212E+02  0.50501673190E+03  0.50767861255E+03  0.10000000000E+02 0. -1.
</event>
<event>
 5    1  0.1360042E-008  0.3828831E+03  0.7957747E-01  0.3438700E+00
         13   -1    0    0    0    0  0.00000000000E+00  0.00000000000E+00  0.14999999963E+04  0.15000000000E+04  0.10566000000E+00 0.  1.
        994   -1    0    0    0    0 -0.00000000000E+00 -0.00000000000E+00  0.11368683772E-12  0.17120000000E+03  0.17120000000E+03 0.  0.
         13    1    1    2    0    0 -0.29971744632E+02  0.23536301149E+01  0.17133401739E+03  0.17395172241E+03  0.10566000000E+00 0.  1.
        994    1    1    2    0    0  0.14515755423E+02 -0.85097702495E+01  0.36229096641E+01  0.17206303734E+03  0.17120000000E+03 0.  0.
        998    1    1    2    0    0  0.15455989209E+02  0.61561401346E+01  0.13250430692E+04  0.13251852402E+04  0.10000000000E+02 0.  1.
</event>
<event>
 5    1  0.1360042E-008  0.3726151E+03  0.7957747E-01  0.3483958E+00
         13   -1    0    0    0    0  0.00000000000E+00  0.00000000000E+00  0.14999999963E+04  0.15000000000E+04  0.10566000000E+00 0. -1.
        994   -1    0    0    0    0 -0.00000000000E+00 -0.00000000000E+00  0.11368683772E-12  0.17120000000E+03  0.17120000000E+03 0.  0.
         13    1    1    2    0    0  0.57168247382E+01 -0.66170215945E+02  0.21086580911E+03  0.22107822185E+03  0.10566000000E+00 0. -1.
        994    1    1    2    0    0  0.16221189003E+02  0.33752359450E+01  0.13297457650E+02  0.17251313449E+03  0.17120000000E+03 0.  0.
        998    1    1    2    0    0 -0.21938013741E+02  0.62794980000E+02  0.12758367295E+04  0.12776086437E+04  0.10000000000E+02 0. -1.
</event>
<event>
 5    1  0.1360042E-008  0.3689163E+03  0.7957747E-01  0.3500886E+00
         13   -1    0    0    0    0  0.00000000000E+00  0.00000000000E+00  0.14999999963E+04  0.15000000000E+04  0.10566000000E+00 0. -1.
        994   -1    0    0    0    0 -0.00000000000E+00 -0.00000000000E+00  0.11368683772E-12  0.17120000000E+03  0.17120000000E+03 0.  0.
         13    1    1    2    0    0 -0.19114500354E+01 -0.12482378716E+03  0.70956680805E+03  0.72046491776E+03  0.10566000000E+00 0. -1.
        994    1    1    2    0    0  0.99718461799E+02  0.10568572678E+03  0.87969776352E+02  0.24116667684E+03  0.17120000000E+03 0.  0.
        998    1    1    2    0    0 -0.97807011763E+02  0.19138060381E+02  0.70246341188E+03  0.70956840539E+03  0.10000000000E+02 0. -1.
</event>
<event>
 5    1  0.1360042E-008  0.3815871E+03  0.7957747E-01  0.3444277E+00
         13   -1    0    0    0    0  0.00000000000E+00  0.00000000000E+00  0.14999999963E+04  0.15000000000E+04  0.10566000000E+00 0.  1.
        994   -1    0    0    0    0 -0.00000000000E+00 -0.00000000000E+00  0.11368683772E-12  0.17120000000E+03  0.17120000000E+03 0.  0.
         13    1    1    2    0    0 -0.13720884590E+02 -0.16755347513E+02  0.65901125673E+02  0.69368392465E+02  0.10566000000E+00 0.  1.
        994    1    1    2    0    0  0.27853137279E+02  0.89305508961E+01  0.61844391158E+01  0.17379079171E+03  0.17120000000E+03 0.  0.
        998    1    1    2    0    0 -0.14132252690E+02  0.78247966166E+01  0.14279144315E+04  0.14280408158E+04  0.10000000000E+02 0.  1.
</event>
<event>
 5    1  0.1360042E-008  0.3837349E+03  0.7957747E-01  0.3435056E+00
         13   -1    0    0    0    0  0.00000000000E+00  0.00000000000E+00  0.14999999963E+04  0.15000000000E+04  0.10566000000E+00 0. -1.
        994   -1    0    0    0    0 -0.00000000000E+00 -0.00000000000E+00  0.11368683772E-12  0.17120000000E+03  0.17120000000E+03 0.  0.
         13    1    1    2    0    0 -0.11141677499E+02  0.10050626439E+02  0.52606606781E+02  0.54704828949E+02  0.10566000000E+00 0. -1.
        994    1    1    2    0    0 -0.26508720112E+01  0.19280774669E+01  0.22950348912E+01  0.17124675702E+03  0.17120000000E+03 0.  0.
        998    1    1    2    0    0  0.13792549510E+02 -0.11978703906E+02  0.14450983546E+04  0.14452484140E+04  0.10000000000E+02 0. -1.
</event>
<event>
 5    1  0.1360042E-008  0.3834713E+03  0.7957747E-01  0.3436181E+00
         13   -1    0    0    0    0  0.00000000000E+00  0.00000000000E+00  0.14999999963E+04  0.15000000000E+04  0.10566000000E+00 0.  1.
        994   -1    0    0    0    0 -0.00000000000E+00 -0.00000000000E+00  0.11368683772E-12  0.17120000000E+03  0.17120000000E+03 0.  0.
         13    1    1    2    0    0 -0.67567101033E+01 -0.73757557562E+01  0.20564648725E+02  0.22868555827E+02  0.10566000000E+00 0.  1.
        994    1    1    2    0    0 -0.38040387789E+01  0.29480669677E+01  0.24675543268E+01  0.17128540695E+03  0.17120000000E+03 0.  0.
        998    1    1    2    0    0  0.10560748882E+02  0.44276887884E+01  0.14769677932E+04  0.14770460372E+04  0.10000000000E+02 0.  1.
</event>
<event>
 5    1  0.1360042E-008  0.3776722E+03  0.7957747E-01  0.3461357E+00
         13   -1    0    0    0    0  0.00000000000E+00  0.00000000000E+00  0.14999999963E+04  0.15000000000E+04  0.10566000000E+00 0.  1.
        994   -1    0    0    0    0 -0.00000000000E+00 -0.00000000000E+00  0.11368683772E-12  0.17120000000E+03  0.17120000000E+03 0.  0.
         13    1    1    2    0    0 -0.32061256368E+02  0.26903273565E+02  0.18102506862E+03  0.18580042228E+03  0.10566000000E+00 0.  1.
        994    1    1    2    0    0 -0.44508310339E+01 -0.18115941731E+02  0.64860463432E+01  0.17233544626E+03  0.17120000000E+03 0.  0.
        998    1    1    2    0    0  0.36512087402E+02 -0.87873318343E+01  0.13124888813E+04  0.13130641315E+04  0.10000000000E+02 0.  1.
</event>
<event>
 5    1  0.1360042E-008  0.3851103E+03  0.7957747E-01  0.3429205E+00
         13   -1    0    0    0    0  0.00000000000E+00  0.00000000000E+00  0.14999999963E+04  0.15000000000E+04  0.10566000000E+00 0.  1.
        994   -1    0    0    0    0 -0.00000000000E+00 -0.00000000000E+00  0.11368683772E-12  0.17120000000E+03  0.17120000000E+03 0.  0.
         13    1    1    2    0    0  0.13199838287E+02 -0.31284085067E+00  0.54764686667E+02  0.56333965510E+02  0.10566000000E+00 0.  1.
        994    1    1    2    0    0 -0.10557162254E+02  0.37666112870E+01  0.19885442394E+01  0.17157807361E+03  0.17120000000E+03 0.  0.
        998    1    1    2    0    0 -0.26426760334E+01 -0.34537704363E+01  0.14432467654E+04  0.14432879609E+04  0.10000000000E+02 0.  1.
</event>
<event>
 5    1  0.1360042E-008  0.3738152E+03  0.7957747E-01  0.3478538E+00
         13   -1    0    0    0    0  0.00000000000E+00  0.00000000000E+00  0.14999999963E+04  0.15000000000E+04  0.10566000000E+00 0. -1.
        994   -1    0    0    0    0 -0.00000000000E+00 -0.00000000000E+00  0.11368683772E-12  0.17120000000E+03  0.17120000000E+03 0.  0.
         13    1    1    2    0    0  0.78436467883E+01 -0.23964634292E+02  0.40649385963E+02  0.47835240513E+02  0.10566000000E+00 0. -1.
        994    1    1    2    0    0  0.34697912277E+01  0.19541912046E+02  0.86339430814E+01  0.17256277336E+03  0.17120000000E+03 0.  0.
        998    1    1    2    0    0 -0.11313438016E+02  0.44227222462E+01  0.14507166672E+04  0.14508019861E+04  0.10000000000E+02 0. -1.
</event>
<event>
 5    1  0.1360042E-008  0.3766182E+03  0.7957747E-01  0.3466017E+00
         13   -1    0    0    0    0  0.00000000000E+00  0.00000000000E+00  0.14999999963E+04  0.15000000000E+04  0.10566000000E+00 0.  1.
        994   -1    0    0    0    0 -0.00000000000E+00 -0.00000000000E+00  0.11368683772E-12  0.17120000000E+03  0.17120000000E+03 0.  0.
         13    1    1    2    0    0 -0.12859699345E+01  0.14222553476E+02  0.14499488363E+02  0.20351439086E+02  0.10566000000E+00 0.  1.
        994    1    1    2    0    0  0.10300409965E+02 -0.19890458927E+02  0.75481594358E+01  0.17282402470E+03  0.17120000000E+03 0.  0.
        998    1    1    2    0    0 -0.90144400301E+01  0.56679054515E+01  0.14779523485E+04  0.14780245362E+04  0.10000000000E+02 0.  1.
</event>
<event>
 5    1  0.1360042E-008  0.3795034E+03  0.7957747E-01  0.3453324E+00
         13   -1    0    0    0    0  0.00000000000E+00  0.00000000000E+00  0.14999999963E+04  0.15000000000E+04  0.10566000000E+00 0.  1.
        994   -1    0    0    0    0 -0.00000000000E+00 -0.00000000000E+00  0.11368683772E-12  0.17120000000E+03  0.17120000000E+03 0.  0.
         13    1    1    2    0    0 -0.46876094000E+02 -0.95828639923E+01  0.18993897830E+03  0.19587247411E+03  0.10566000000E+00 0.  1.
        994    1    1    2    0    0  0.70089582335E+02  0.29294977488E+02  0.23955694537E+02  0.18882282849E+03  0.17120000000E+03 0.  0.
        998    1    1    2    0    0 -0.23213488335E+02 -0.19712113496E+02  0.12861053234E+04  0.12865046974E+04  0.10000000000E+02 0.  1.
</event>
<event>
 5    1  0.1360042E-008  0.3725483E+03  0.7957747E-01  0.3484261E+00
         13   -1    0    0    0    0  0.00000000000E+00  0.00000000000E+00  0.14999999963E+04  0.15000000000E+04  0.10566000000E+00 0.  1.
        994   -1    0    0    0    0 -0.00000000000E+00 -0.00000000000E+00  0.11368683772E-12  0.17120000000E+03  0.17120000000E+03 0.  0.
         13    1    1    2    0    0 -0.28236766950E+01  0.36506598211E+02  0.47412339908E+02  0.59905308634E+02  0.10566000000E+00 0.  1.
        994    1    1    2    0    0  0.78370945952E+01 -0.43219904736E+02  0.19129614773E+02  0.17777728308E+03  0.17120000000E+03 0.  0.
        998    1    1    2    0    0 -0.50134179001E+01  0.67133065246E+01  0.14334580416E+04  0.14335174083E+04  0.10000000000E+02 0.  1.
</event>
<event>
 5    1  0.1360042E-008  0.3822156E+03  0.7957747E-01  0.3441568E+00
         13   -1    0    0    0    0  0.00000000000E+00  0.00000000000E+00  0.14999999963E+04  0.15000000000E+04  0.10566000000E+00 0. -1.
        994   -1    0    0    0    0 -0.00000000000E+00 -0.00000000000E+00  0.11368683772E-12  0.17120000000E+03  0.17120000000E+03 0.  0.
         13    1    1    2    0    0 -0.10070505321E+02 -0.10326718712E+02  0.37234837882E+02  0.39931197238E+02  0.10566000000E+00 0. -1.
        994    1    1    2    0    0 -0.39864877296E+02  0.12744183616E+02  0.88537498204E+01  0.17646374003E+03  0.17120000000E+03 0.  0.
        998    1    1    2    0    0  0.49935382618E+02 -0.24174649042E+01  0.14539114086E+04  0.14548050627E+04  0.10000000000E+02 0. -1.
</event>
<event>
 5    1  0.1360042E-008  0.3856699E+03  0.7957747E-01  0.3426836E+00
         13   -1    0    0    0    0  0.00000000000E+00  0.00000000000E+00  0.14999999963E+04  0.15000000000E+04  0.10566000000E+00 0. -1.
        994   -1    0    0    0    0 -0.00000000000E+00 -0.00000000000E+00  0.11368683772E-12  0.17120000000E+03  0.17120000000E+03 0.  0.
         13    1    1    2    0    0  0.16357663986E+01  0.14158545716E+02  0.79971608085E+02  0.81231825119E+02  0.10566000000E+00 0. -1.
        994    1    1    2    0    0  0.33937269329E+01 -0.79356801471E+01  0.15423877165E+01  0.17142436047E+03  0.17120000000E+03 0.  0.
        998    1    1    2    0    0 -0.50294933315E+01 -0.62228655692E+01  0.14184860005E+04  0.14185438144E+04  0.10000000000E+02 0. -1.
</event>
<event>
 5    1  0.1360042E-008  0.3799094E+03  0.7957747E-01  0.3451553E+00
         13   -1    0    0    0    0  0.00000000000E+00  0.00000000000E+00  0.14999999963E+04  0.15000000000E+04  0.10566000000E+00 0. -1.
        994   -1    0    0    0    0 -0.00000000000E+00 -0.00000000000E+00  0.11368683772E-12  0.17120000000E+03  0.17120000000E+03 0.  0.
         13    1    1    2    0    0  0.90666927428E+01 -0.20784718394E+02  0.65272040492E+02  0.69098913668E+02  0.10566000000E+00 0. -1.
        994    1    1    2    0    0  0.22942880987E+01 -0.49283404196E+01  0.42777028900E+01  0.17133969487E+03  0.17120000000E+03 0.  0.
        998    1    1    2    0    0 -0.11360980842E+02  0.25713058813E+02  0.14304502529E+04  0.14307613915E+04  0.10000000000E+02 0. -1.
</event>
<event>
 5    1  0.1360042E-008  0.2787347E+03  0.7957747E-01  0.4060597E+00
         13   -1    0    0    0    0  0.00000000000E+00  0.00000000000E+00  0.14999999963E+04  0.15000000000E+04  0.10566000000E+00 0.  1.
        994   -1    0    0    0    0 -0.00000000000E+00 -0.00000000000E+00  0.11368683772E-12  0.17120000000E+03  0.17120000000E+03 0.  0.
         13    1    1    2    0    0  0.28336001223E+02  0.18255208513E+03  0.55551969684E+03  0.58543175306E+03  0.10566000000E+00 0.  1.
        994    1    1    2    0    0 -0.75173473465E+02 -0.12738102506E+03  0.11632604264E+03  0.25439765104E+03  0.17120000000E+03 0.  0.
        998    1    1    2    0    0  0.46837472242E+02 -0.55171060066E+02  0.82815425680E+03  0.83137059590E+03  0.10000000000E+02 0.  1.
</event>
<event>
 5    1  0.1360042E-008  0.3833081E+03  0.7957747E-01  0.3436880E+00
         13   -1    0    0    0    0  0.00000000000E+00  0.00000000000E+00  0.14999999963E+04  0.15000000000E+04  0.10566000000E+00 0. -1.
        994   -1    0    0    0    0 -0.00000000000E+00 -0.00000000000E+00  0.11368683772E-12  0.17120000000E+03  0.17120000000E+03 0.  0.
         13    1    1    2    0    0 -0.12408901501E+02 -0.62883450582E+01  0.38857507409E+02  0.41272765428E+02  0.10566000000E+00 0. -1.
        994    1    1    2    0    0  0.54324934593E+01  0.35246510735E+01  0.26111653608E+01  0.17134232791E+03  0.17120000000E+03 0.  0.
        998    1    1    2    0    0  0.69764080414E+01  0.27636939847E+01  0.14585313235E+04  0.14585849067E+04  0.10000000000E+02 0. -1.
</event>
<event>
 5    1  0.1360042E-008  0.3828013E+03  0.7957747E-01  0.3439051E+00
         13   -1    0    0    0    0  0.00000000000E+00  0.00000000000E+00  0.14999999963E+04  0.15000000000E+04  0.10566000000E+00 0.  1.
        994   -1    0    0    0    0 -0.00000000000E+00 -0.00000000000E+00  0.11368683772E-12  0.17120000000E+03  0.17120000000E+03 0.  0.
         13    1    1    2    0    0 -0.62220946757E+01  0.13851939812E+02  0.43117710678E+02  0.45713661381E+02  0.10566000000E+00 0.  1.
        994    1    1    2    0    0 -0.64035222367E+01 -0.34913112928E+01  0.29019176878E+01  0.17137985727E+03  0.17120000000E+03 0.  0.
        998    1    1    2    0    0  0.12625616912E+02 -0.10360628519E+02  0.14539803679E+04  0.14541064813E+04  0.10000000000E+02 0.  1.
</event>
<event>
 5    1  0.1360042E-008  0.4303864E+03  0.7957747E-01  0.3257385E+00
         13   -1    0    0    0    0  0.00000000000E+00  0.00000000000E+00  0.14999999963E+04  0.15000000000E+04  0.10566000000E+00 0.  1.
        994   -1    0    0    0    0 -0.00000000000E+00 -0.00000000000E+00  0.11368683772E-12  0.17120000000E+03  0.17120000000E+03 0.  0.
         13    1    1    2    0    0 -0.66999133666E+01  0.14211094533E+03  0.16896351797E+03  0.22088252804E+03  0.10566000000E+00 0.  1.
        994    1    1    2    0    0  0.13357104935E+02 -0.14739425367E+03  0.15520142874E+03  0.27440918671E+03  0.17120000000E+03 0.  0.
        998    1    1    2    0    0 -0.66571915681E+01  0.52833083351E+01  0.11758350496E+04  0.11759082853E+04  0.10000000000E+02 0.  1.
</event>
<event>
 5    1  0.1360042E-008  0.3749247E+03  0.7957747E-01  0.3473560E+00
         13   -1    0    0    0    0  0.00000000000E+00  0.00000000000E+00  0.14999999963E+04  0.15000000000E+04  0.10566000000E+00 0. -1.
        994   -1    0    0    0    0 -0.00000000000E+00 -0.00000000000E+00  0.11368683772E-12  0.17120000000E+03  0.17120000000E+03 0.  0.
         13    1    1    2    0    0 -0.74748502936E+01 -0.14186150910E+02  0.16134822949E+02  0.22747833747E+02  0.10566000000E+00 0. -1.
        994    1    1    2    0    0  0.53256637953E+01  0.12436774173E+02  0.73399923308E+01  0.17189052194E+03  0.17120000000E+03 0.  0.
        998    1    1    2    0    0  0.21491864983E+01  0.17493767368E+01  0.14765251810E+04  0.14765616443E+04  0.10000000000E+02 0. -1.
</event>
<event>
 5    1  0.1360042E-008  0.3822113E+03  0.7957747E-01  0.3441586E+00
         13   -1    0    0    0    0  0.00000000000E+00  0.00000000000E+00  0.14999999963E+04  0.15000000000E+04  0.10566000000E+00 0.  1.
        994   -1    0    0    0    0 -0.00000000000E+00 -0.00000000000E+00  0.11368683772E-12  0.17120000000E+03  0.17120000000E+03 0.  0.
         13    1    1    2    0    0  0.42493582723E+01  0.13565187181E+02  0.32217687464E+02  0.35214512613E+02  0.10566000000E+00 0.  1.
        994    1    1    2    0    0 -0.45241036759E+01 -0.99963568349E+01  0.34207003655E+01  0.17158536026E+03  0.17120000000E+03 0.  0.
        998    1    1    2    0    0  0.27474540355E+00 -0.35688303462E+01  0.14643616084E+04  0.14644001271E+04  0.10000000000E+02 0.  1.
</event>
<event>
 5    1  0.5279720E-008  0.3866120E+03  0.7957747E-01  0.3422864E+00
         13   -1    0    0    0    0  0.00000000000E+00  0.00000000000E+00  0.14999999963E+04  0.15000000000E+04  0.10566000000E+00 0. -1.
        994   -1    0    0    0    0 -0.00000000000E+00 -0.00000000000E+00  0.11368683772E-12  0.17120000000E+03  0.17120000000E+03 0.  0.
         13    1    1    2    0    0 -0.97479091131E+01  0.27931409676E+01  0.61211517861E+02  0.62045825415E+02  0.10566000000E+00 0. -1.
        994    1    1    2    0    0  0.10378259819E+02 -0.31150463724E+01  0.12161348246E+01  0.17154687632E+03  0.17120000000E+03 0.  0.
        998    1    1    2    0    0 -0.63035070594E+00  0.32190540488E+00  0.14375723436E+04  0.14376072983E+04  0.10000000000E+02 0. -1.
</event>
<event>
 5    1  0.1360042E-008  0.3833570E+03  0.7957747E-01  0.3436670E+00
         13   -1    0    0    0    0  0.00000000000E+00  0.00000000000E+00  0.14999999963E+04  0.15000000000E+04  0.10566000000E+00 0. -1.
        994   -1    0    0    0    0 -0.00000000000E+00 -0.00000000000E+00  0.11368683772E-12  0.17120000000E+03  0.17120000000E+03 0.  0.
         13    1    1    2    0    0 -0.14354267165E+02  0.20586446299E+02  0.13269805585E+03  0.13505047925E+03  0.10566000000E+00 0. -1.
        994    1    1    2    0    0  0.10275601095E+02 -0.56346241636E+01  0.29022545776E+01  0.17162517312E+03  0.17120000000E+03 0.  0.
        998    1    1    2    0    0  0.40786660700E+01 -0.14951822135E+02  0.13643996859E+04  0.13645243476E+04  0.10000000000E+02 0. -1.
</event>
<event>
 5    1  0.2872655E-008  0.3861362E+03  0.7957747E-01  0.3424868E+00
         13   -1    0    0    0    0  0.00000000000E+00  0.00000000000E+00  0.14999999963E+04  0.15000000000E+04  0.10566000000E+00 0. -1.
        994   -1    0    0    0    0 -0.00000000000E+00 -0.00000000000E+00  0.11368683772E-12  0.17120000000E+03  0.17120000000E+03 0.  0.
         13    1    1    2    0    0  0.10164681890E+02 -0.41180998732E+01  0.54936610260E+02  0.56020726659E+02  0.10566000000E+00 0. -1.
        994    1    1    2    0    0 -0.12108950334E+02  0.46206016605E+01  0.16176540978E+01  0.17169750564E+03  0.17120000000E+03 0.  0.
        998    1    1    2    0    0  0.19442684444E+01 -0.50250178728E+00  0.14434457319E+04  0.14434817677E+04  0.10000000000E+02 0. -1.
</event>
<event>
 5    1  0.1360042E-008  0.3838548E+03  0.7957747E-01  0.3434544E+00
         13   -1    0    0    0    0  0.00000000000E+00  0.00000000000E+00  0.14999999963E+04  0.15000000000E+04  0.10566000000E+00 0. -1.
        994   -1    0    0    0    0 -0.00000000000E+00 -0.00000000000E+00  0.11368683772E-12  0.17120000000E+03  0.17120000000E+03 0.  0.
         13    1    1    2    0    0 -0.12112504374E+02 -0.17760945629E+02  0.99327299219E+02  0.10162719855E+03  0.10566000000E+00 0. -1.
        994    1    1    2    0    0  0.32358708972E+02  0.43636544467E+01  0.57269236465E+01  0.17437994489E+03  0.17120000000E+03 0.  0.
        998    1    1    2    0    0 -0.20246204599E+02  0.13397291182E+02  0.13949457734E+04  0.13951928566E+04  0.10000000000E+02 0. -1.
</event>
<event>
 5    1  0.1360042E-008  0.3702280E+03  0.7957747E-01  0.3494844E+00
         13   -1    0    0    0    0  0.00000000000E+00  0.00000000000E+00  0.14999999963E+04  0.15000000000E+04  0.10566000000E+00 0.  1.
        994   -1    0    0    0    0 -0.00000000000E+00 -0.00000000000E+00  0.11368683772E-12  0.17120000000E+03  0.17120000000E+03 0.  0.
         13    1    1    2    0    0  0.10857709826E+02  0.50477723129E+02  0.14799687663E+03  0.15674494267E+03  0.10566000000E+00 0.  1.
        994    1    1    2    0    0  0.32103211271E+02 -0.31115684645E+02  0.16087478750E+02  0.17767118218E+03  0.17120000000E+03 0.  0.
        998    1    1    2    0    0 -0.42960921097E+02 -0.19362038484E+02  0.13359156409E+04  0.13367838752E+04  0.10000000000E+02 0.  1.
</event>
<event>
 5    1  0.1360042E-008  0.3813744E+03  0.7957747E-01  0.3445196E+00
         13   -1    0    0    0    0  0.00000000000E+00  0.00000000000E+00  0.14999999963E+04  0.15000000000E+04  0.10566000000E+00 0. -1.
        994   -1    0    0    0    0 -0.00000000000E+00 -0.00000000000E+00  0.11368683772E-12  0.17120000000E+03  0.17120000000E+03 0.  0.
         13    1    1    2    0    0 -0.11304755134E+02  0.87527338828E+00  0.17545344131E+02  0.20890520741E+02  0.10566000000E+00 0. -1.
        994    1    1    2    0    0  0.21102976190E+01  0.20011295128E+00  0.34559471045E+01  0.17124799845E+03  0.17120000000E+03 0.  0.
        998    1    1    2    0    0  0.91944575150E+01 -0.10753863396E+01  0.14789987050E+04  0.14790614808E+04  0.10000000000E+02 0. -1.
</event>
<event>
 5    1  0.1360042E-008  0.3790192E+03  0.7957747E-01  0.3455440E+00
         13   -1    0    0    0    0  0.00000000000E+00  0.00000000000E+00  0.14999999963E+04  0.15000000000E+04  0.10566000000E+00 0. -1.
        994   -1    0    0    0    0 -0.00000000000E+00 -0.00000000000E+00  0.11368683772E-12  0.17120000000E+03  0.17120000000E+03 0.  0.
         13    1    1    2    0    0  0.10533378406E+02 -0.47889415150E+01  0.12051289442E+02  0.16707206910E+02  0.10566000000E+00 0. -1.
        994    1    1    2    0    0 -0.15763392913E+02  0.16380340849E+02  0.63642068400E+01  0.17281997353E+03  0.17120000000E+03 0.  0.
        998    1    1    2    0    0  0.52300145070E+01 -0.11591399334E+02  0.14815845000E+04  0.14816728196E+04  0.10000000000E+02 0. -1.
</event>
<event>
 5    1  0.1360042E-008  0.3826697E+03  0.7957747E-01  0.3439616E+00
         13   -1    0    0    0    0  0.00000000000E+00  0.00000000000E+00  0.14999999963E+04  0.15000000000E+04  0.10566000000E+00 0. -1.
        994   -1    0    0    0    0 -0.00000000000E+00 -0.00000000000E+00  0.11368683772E-12  0.17120000000E+03  0.17120000000E+03 0.  0.
         13    1    1    2    0    0  0.33553547083E+02  0.62844816473E+01  0.19451774406E+03  0.19749050394E+03  0.10566000000E+00 0. -1.
        994    1    1    2    0    0 -0.27193014864E+02 -0.47049617626E+01  0.53193196046E+01  0.17349159024E+03  0.17120000000E+03 0.  0.
        998    1    1    2    0    0 -0.63605322189E+01 -0.15795198847E+01  0.13001629326E+04  0.13002179058E+04  0.10000000000E+02 0. -1.
</event>
<event>
 5    1  0.1360042E-008  0.3738298E+03  0.7957747E-01  0.3478473E+00
         13   -1    0    0    0    0  0.00000000000E+00  0.00000000000E+00  0.14999999963E+04  0.15000000000E+04  0.10566000000E+00 0.  1.
        994   -1    0    0    0    0 -0.00000000000E+00 -0.00000000000E+00  0.11368683772E-12  0.17120000000E+03  0.17120000000E+03 0.  0.
         13    1    1    2    0    0  0.15914966659E+02  0.41168274982E+01  0.44867568431E+01  0.17040439648E+02  0.10566000000E+00 0.  1.
        994    1    1    2    0    0 -0.15047906813E+02 -0.80172225285E+01  0.14009190719E+02  0.17261637460E+03  0.17120000000E+03 0.  0.
        998    1    1    2    0    0 -0.86705984608E+00  0.39003950303E+01  0.14815040487E+04  0.14815431857E+04  0.10000000000E+02 0.  1.
</event>
<event>
 5    1  0.1360042E-008  0.3820165E+03  0.7957747E-01  0.3442425E+00
         13   -1    0    0    0    0  0.00000000000E+00  0.00000000000E+00  0.14999999963E+04  0.15000000000E+04  0.10566000000E+00 0.  1.
        994   -1    0    0    0    0 -0.00000000000E+00 -0.00000000000E+00  0.11368683772E-12  0.17120000000E+03  0.17120000000E+03 0.  0.
         13    1    1    2    0    0 -0.24174643403E+02 -0.22581068923E+02  0.16201476014E+03  0.16535752696E+03  0.10566000000E+00 0.  1.
        994    1    1    2    0    0  0.23835628688E+02  0.17610567855E+02  0.60407028280E+01  0.17385108394E+03  0.17120000000E+03 0.  0.
        998    1    1    2    0    0  0.33901471505E+00  0.49705010688E+01  0.13319445333E+04  0.13319913891E+04  0.10000000000E+02 0.  1.
</event>
<event>
 5    1  0.1360042E-008  0.3812303E+03  0.7957747E-01  0.3445819E+00
         13   -1    0    0    0    0  0.00000000000E+00  0.00000000000E+00  0.14999999963E+04  0.15000000000E+04  0.10566000000E+00 0. -1.
        994   -1    0    0    0    0 -0.00000000000E+00 -0.00000000000E+00  0.11368683772E-12  0.17120000000E+03  0.17120000000E+03 0.  0.
         13    1    1    2    0    0  0.30854224754E+02 -0.10017161948E+02  0.14037743710E+03  0.14407693337E+03  0.10566000000E+00 0. -1.
        994    1    1    2    0    0 -0.29676003014E+02 -0.57436521543E+00  0.64521078557E+01  0.17387370343E+03  0.17120000000E+03 0.  0.
        998    1    1    2    0    0 -0.11782217402E+01  0.10591527163E+02  0.13531704513E+04  0.13532493632E+04  0.10000000000E+02 0. -1.
</event>
<event>
 5    1  0.1360042E-008  0.3721769E+03  0.7957747E-01  0.3485946E+00
         13   -1    0    0    0    0  0.00000000000E+00  0.00000000000E+00  0.14999999963E+04  0.15000000000E+04  0.10566000000E+00 0. -1.
        994   -1    0    0    0    0 -0.00000000000E+00 -0.00000000000E+00  0.11368683772E-12  0.17120000000E+03  0.17120000000E+03 0.  0.
         13    1    1    2    0    0  0.94059528254E+02 -0.27033107019E+02  0.43701932824E+03  0.44784359787E+03  0.10566000000E+00 0. -1.
        994    1    1    2    0    0 -0.87077774469E+02  0.25724702434E+02  0.36982833518E+02  0.19728524805E+03  0.17120000000E+03 0.  0.
        998    1    1    2    0    0 -0.69817537844E+01  0.13084045853E+01  0.10259978345E+04  0.10260711541E+04  0.10000000000E+02 0. -1.
</event>
<event>
 5    1  0.1360042E-008  0.3789845E+03  0.7957747E-01  0.3455592E+00
         13   -1    0    0    0    0  0.00000000000E+00  0.00000000000E+00  0.14999999963E+04  0.15000000000E+04  0.10566000000E+00 0.  1.
        994   -1    0    0    0    0 -0.00000000000E+00 -0.00000000000E+00  0.11368683772E-12  0.17120000000E+03  0.17120000000E+03 0.  0.
         13    1    1    2    0    0  0.21212398317E+02 -0.16527921192E+02  0.79013640596E+02  0.83464391123E+02  0.10566000000E+00 0.  1.
        994    1    1    2    0    0 -0.14983617742E+02 -0.55022311578E+01  0.55016902421E+01  0.17203049713E+03  0.17120000000E+03 0.  0.
        998    1    1    2    0    0 -0.62287805755E+01  0.22030152350E+02  0.14154846654E+04  0.14157051117E+04  0.10000000000E+02 0.  1.
</event>
<event>
 5    1  0.1360042E-008  0.3769521E+03  0.7957747E-01  0.3464538E+00
         13   -1    0    0    0    0  0.00000000000E+00  0.00000000000E+00  0.14999999963E+04  0.15000000000E+04  0.10566000000E+00 0. -1.
        994   -1    0    0    0    0 -0.00000000000E+00 -0.00000000000E+00  0.11368683772E-12  0.17120000000E+03  0.17120000000E+03 0.  0.
         13    1    1    2    0    0  0.92715491317E+02 -0.21604346422E+03  0.92338120480E+03  0.95283986132E+03  0.10566000000E+00 0. -1.
        994    1    1    2    0    0 -0.12630756351E+03  0.21513937158E+03  0.25746421396E+03  0.39728555381E+03  0.17120000000E+03 0.  0.
        998    1    1    2    0    0  0.33592072194E+02  0.90409264576E+00  0.31915457752E+03  0.32107458487E+03  0.10000000000E+02 0.  1.
</event>
<event>
 5    1  0.1360042E-008  0.3857090E+03  0.7957747E-01  0.3426671E+00
         13   -1    0    0    0    0  0.00000000000E+00  0.00000000000E+00  0.14999999963E+04  0.15000000000E+04  0.10566000000E+00 0.  1.
        994   -1    0    0    0    0 -0.00000000000E+00 -0.00000000000E+00  0.11368683772E-12  0.17120000000E+03  0.17120000000E+03 0.  0.
         13    1    1    2    0    0  0.67171555311E+01 -0.12145154735E+02  0.75784518709E+02  0.77044982977E+02  0.10566000000E+00 0.  1.
        994    1    1    2    0    0  0.28199343108E+01  0.12333063090E+02  0.18038911133E+01  0.17167629568E+03  0.17120000000E+03 0.  0.
        998    1    1    2    0    0 -0.95370898418E+01 -0.18790835436E+00  0.14224115865E+04  0.14224787213E+04  0.10000000000E+02 0.  1.
</event>
<event>
 5    1  0.1360042E-008  0.3599589E+03  0.7957747E-01  0.3543350E+00
         13   -1    0    0    0    0  0.00000000000E+00  0.00000000000E+00  0.14999999963E+04  0.15000000000E+04  0.10566000000E+00 0. -1.
        994   -1    0    0    0    0 -0.00000000000E+00 -0.00000000000E+00  0.11368683772E-12  0.17120000000E+03  0.17120000000E+03 0.  0.
         13    1    1    2    0    0  0.23930421966E+03  0.10048534270E+03  0.11917139392E+04  0.12196499242E+04  0.10566000000E+00 0. -1.
        994    1    1    2    0    0 -0.19979140569E+03 -0.62755068752E+02  0.22710134114E+03  0.35318446114E+03  0.17120000000E+03 0.  0.
        998    1    1    2    0    0 -0.39512813972E+02 -0.37730273946E+02  0.81184715985E+02  0.98365614672E+02  0.10000000000E+02 0.  1.
</event>
<event>
 5    1  0.1726144E-008  0.3860829E+03  0.7957747E-01  0.3425092E+00
         13   -1    0    0    0    0  0.00000000000E+00  0.00000000000E+00  0.14999999963E+04  0.15000000000E+04  0.10566000000E+00 0.  1.
        994   -1    0    0    0    0 -0.00000000000E+00 -0.00000000000E+00  0.11368683772E-12  0.17120000000E+03  0.17120000000E+03 0.  0.
         13    1    1    2    0    0 -0.51269487978E+01 -0.11136070175E+02  0.72337863258E+02  0.73369443828E+02  0.10566000000E+00 0.  1.
        994    1    1    2    0    0 -0.26436277937E+01  0.50396510996E+01  0.11995812044E+01  0.17129876195E+03  0.17120000000E+03 0.  0.
        998    1    1    2    0    0  0.77705765915E+01  0.60964190757E+01  0.14264625518E+04  0.14265317942E+04  0.10000000000E+02 0.  1.
</event>
<event>
 5    1  0.1360042E-008  0.3824200E+03  0.7957747E-01  0.3440688E+00
         13   -1    0    0    0    0  0.00000000000E+00  0.00000000000E+00  0.14999999963E+04  0.15000000000E+04  0.10566000000E+00 0. -1.
        994   -1    0    0    0    0 -0.00000000000E+00 -0.00000000000E+00  0.11368683772E-12  0.17120000000E+03  0.17120000000E+03 0.  0.
         13    1    1    2    0    0 -0.30225135086E+02  0.85175081590E+01  0.15260083011E+03  0.15579836729E+03  0.10566000000E+00 0. -1.
        994    1    1    2    0    0  0.29663645890E+02 -0.11852436975E+02  0.63079598777E+01  0.17426887992E+03  0.17120000000E+03 0.  0.
        998    1    1    2    0    0  0.56148919666E+00  0.33349288162E+01  0.13410912063E+04  0.13411327528E+04  0.10000000000E+02 0. -1.
</event>
<event>
 5    1  0.1360042E-008  0.3825893E+03  0.7957747E-01  0.3439961E+00
         13   -1    0    0    0    0  0.00000000000E+00  0.00000000000E+00  0.14999999963E+04  0.15000000000E+04  0.10566000000E+00 0.  1.
        994   -1    0    0    0    0 -0.00000000000E+00 -0.00000000000E+00  0.11368683772E-12  0.17120000000E+03  0.17120000000E+03 0.  0.
         13    1    1    2    0    0  0.37299571498E+01 -0.10903308396E+02  0.22235438843E+02  0.25044372998E+02  0.10566000000E+00 0.  1.
        994    1    1    2    0    0 -0.40808523273E+00  0.10605333302E+02  0.32052095414E+01  0.17155859931E+03  0.17120000000E+03 0.  0.
        998    1    1    2    0    0 -0.33218719171E+01  0.29797509418E+00  0.14745593479E+04  0.14745970277E+04  0.10000000000E+02 0.  1.
</event>
<event>
 5    1  0.1360042E-008  0.3781901E+03  0.7957747E-01  0.3459077E+00
         13   -1    0    0    0    0  0.00000000000E+00  0.00000000000E+00  0.14999999963E+04  0.15000000000E+04  0.10566000000E+00 0.  1.
        994   -1    0    0    0    0 -0.00000000000E+00 -0.00000000000E+00  0.11368683772E-12  0.17120000000E+03  0.17120000000E+03 0.  0.
         13    1    1    2    0    0 -0.10490373558E+02 -0.32085000326E+00  0.89946000969E+01  0.13822621931E+02  0.10566000000E+00 0.  1.
        994    1    1    2    0    0 -0.10748899488E+02 -0.17283364473E+02  0.64439726568E+01  0.17252599315E+03  0.17120000000E+03 0.  0.
        998    1    1    2    0    0  0.21239273046E+02  0.17604214476E+02  0.14845614235E+04  0.14848513849E+04  0.10000000000E+02 0.  1.
</event>
<event>
 5    1  0.1360042E-008  0.3838283E+03  0.7957747E-01  0.3434657E+00
         13   -1    0    0    0    0  0.00000000000E+00  0.00000000000E+00  0.14999999963E+04  0.15000000000E+04  0.10566000000E+00 0.  1.
        994   -1    0    0    0    0 -0.00000000000E+00 -0.00000000000E+00  0.11368683772E-12  0.17120000000E+03  0.17120000000E+03 0.  0.
         13    1    1    2    0    0  0.59847097278E+02 -0.10270871382E+03  0.27223957772E+03  0.29706085873E+03  0.10566000000E+00 0.  1.
        994    1    1    2    0    0 -0.80941591913E+02  0.11265231723E+03  0.93116673555E+02  0.23921170701E+03  0.17120000000E+03 0.  0.
        998    1    1    2    0    0  0.21094494635E+02 -0.99436034063E+01  0.11346437450E+04  0.11349274343E+04  0.10000000000E+02 0.  1.
</event>
<event>
 5    1  0.1360042E-008  0.3174637E+03  0.7957747E-01  0.3778728E+00
         13   -1    0    0    0    0  0.00000000000E+00  0.00000000000E+00  0.14999999963E+04  0.15000000000E+04  0.10566000000E+00 0.  1.
        994   -1    0    0    0    0 -0.00000000000E+00 -0.00000000000E+00  0.11368683772E-12  0.17120000000E+03  0.17120000000E+03 0.  0.
         13    1    1    2    0    0 -0.18269269910E+03 -0.89078906958E+02  0.74058081475E+03  0.76796590309E+03  0.10566000000E+00 0.  1.
        994    1    1    2    0    0  0.20590115886E+03  0.50503675418E+02  0.19058275101E+03  0.33253140217E+03  0.17120000000E+03 0.  0.
        998    1    1    2    0    0 -0.23208459759E+02  0.38575231541E+02  0.56883643052E+03  0.57070269474E+03  0.10000000000E+02 0.  1.
</event>
<event>
 5    1  0.1585817E-008  0.3865049E+03  0.7957747E-01  0.3423315E+00
         13   -1    0    0    0    0  0.00000000000E+00  0.00000000000E+00  0.14999999963E+04  0.15000000000E+04  0.10566000000E+00 0.  1.
        994   -1    0    0    0    0 -0.00000000000E+00 -0.00000000000E+00  0.11368683772E-12  0.17120000000E+03  0.17120000000E+03 0.  0.
         13    1    1    2    0    0 -0.45220544883E+01 -0.89932828354E+01  0.55853204067E+02  0.56753146887E+02  0.10566000000E+00 0.  1.
        994    1    1    2    0    0  0.10767488685E+02  0.89212897593E+01  0.15249903424E+01  0.17177687219E+03  0.17120000000E+03 0.  0.
        998    1    1    2    0    0 -0.62454341970E+01  0.71993076133E-01  0.14426218019E+04  0.14426699809E+04  0.10000000000E+02 0.  1.
</event>
<event>
 5    1  0.1360042E-008  0.3851672E+03  0.7957747E-01  0.3428963E+00
         13   -1    0    0    0    0  0.00000000000E+00  0.00000000000E+00  0.14999999963E+04  0.15000000000E+04  0.10566000000E+00 0.  1.
        994   -1    0    0    0    0 -0.00000000000E+00 -0.00000000000E+00  0.11368683772E-12  0.17120000000E+03  0.17120000000E+03 0.  0.
         13    1    1    2    0    0  0.11006579399E+02 -0.10243052390E+02  0.73553605553E+02  0.75074689251E+02  0.10566000000E+00 0.  1.
        994    1    1    2    0    0 -0.75386286825E+01  0.53305540670E+01  0.18273900781E+01  0.17145852292E+03  0.17120000000E+03 0.  0.
        998    1    1    2    0    0 -0.34679507161E+01  0.49124983227E+01  0.14246190006E+04  0.14246667878E+04  0.10000000000E+02 0.  1.
</event>
<event>
 5    1  0.1360042E-008  0.3829237E+03  0.7957747E-01  0.3438526E+00
         13   -1    0    0    0    0  0.00000000000E+00  0.00000000000E+00  0.14999999963E+04  0.15000000000E+04  0.10566000000E+00 0. -1.
        994   -1    0    0    0    0 -0.00000000000E+00 -0.00000000000E+00  0.11368683772E-12  0.17120000000E+03  0.17120000000E+03 0.  0.
         13    1    1    2    0    0 -0.16994742213E+02  0.18878928536E+01  0.50936740202E+02  0.53730327272E+02  0.10566000000E+00 0. -1.
        994    1    1    2    0    0  0.28117622827E+02  0.27150810525E+02  0.77393942900E+01  0.17577572486E+03  0.17120000000E+03 0.  0.
        998    1    1    2    0    0 -0.11122880614E+02 -0.29038703379E+02  0.14413238618E+04  0.14416939479E+04  0.10000000000E+02 0. -1.
</event>
<event>
 5    1  0.1360042E-008  0.3842561E+03  0.7957747E-01  0.3432833E+00
         13   -1    0    0    0    0  0.00000000000E+00  0.00000000000E+00  0.14999999963E+04  0.15000000000E+04  0.10566000000E+00 0.  1.
        994   -1    0    0    0    0 -0.00000000000E+00 -0.00000000000E+00  0.11368683772E-12  0.17120000000E+03  0.17120000000E+03 0.  0.
         13    1    1    2    0    0 -0.93530905960E+01 -0.59545953747E+01  0.29903794477E+02  0.31893347236E+02  0.10566000000E+00 0.  1.
        994    1    1    2    0    0  0.12126278255E+02  0.10197283852E+00  0.24848454627E+01  0.17164693845E+03  0.17120000000E+03 0.  0.
        998    1    1    2    0    0 -0.27731876590E+01  0.58526225361E+01  0.14676113563E+04  0.14676597143E+04  0.10000000000E+02 0.  1.
</event>
<event>
 5    1  0.1360042E-008  0.3760182E+03  0.7957747E-01  0.3468681E+00
         13   -1    0    0    0    0  0.00000000000E+00  0.00000000000E+00  0.14999999963E+04  0.15000000000E+04  0.10566000000E+00 0. -1.
        994   -1    0    0    0    0 -0.00000000000E+00 -0.00000000000E+00  0.11368683772E-12  0.17120000000E+03  0.17120000000E+03 0.  0.
         13    1    1    2    0    0  0.17926277534E+02 -0.21942551207E+02  0.63400398038E+02  0.69443852249E+02  0.10566000000E+00 0. -1.
        994    1    1    2    0    0 -0.11005382739E+02  0.11449566928E+02  0.70116132578E+01  0.17207792930E+03  0.17120000000E+03 0.  0.
        998    1    1    2    0    0 -0.69208947957E+01  0.10492984280E+02  0.14295879850E+04  0.14296782185E+04  0.10000000000E+02 0. -1.
</event>
<event>
 5    1  0.1360042E-008  0.3833579E+03  0.7957747E-01  0.3436667E+00
         13   -1    0    0    0    0  0.00000000000E+00  0.00000000000E+00  0.14999999963E+04  0.15000000000E+04  0.10566000000E+00 0. -1.
        994   -1    0    0    0    0 -0.00000000000E+00 -0.00000000000E+00  0.11368683772E-12  0.17120000000E+03  0.17120000000E+03 0.  0.
         13    1    1    2    0    0 -0.11542721941E+02 -0.14888601553E+01  0.25908716653E+02  0.28402885365E+02  0.10566000000E+00 0. -1.
        994    1    1    2    0    0  0.18179693547E+02  0.17193846883E+01  0.35509027656E+01  0.17220774214E+03  0.17120000000E+03 0.  0.
        998    1    1    2    0    0 -0.66369716055E+01 -0.23052453302E+00  0.14705403769E+04  0.14705893725E+04  0.10000000000E+02 0. -1.
</event>
<event>
 5    1  0.1360042E-008  0.3774104E+03  0.7957747E-01  0.3462512E+00
         13   -1    0    0    0    0  0.00000000000E+00  0.00000000000E+00  0.14999999963E+04  0.15000000000E+04  0.10566000000E+00 0. -1.
        994   -1    0    0    0    0 -0.00000000000E+00 -0.00000000000E+00  0.11368683772E-12  0.17120000000E+03  0.17120000000E+03 0.  0.
         13    1    1    2    0    0 -0.89641848752E+02 -0.83310262844E+02  0.46421685613E+03  0.48007662058E+03  0.10566000000E+00 0. -1.
        994    1    1    2    0    0  0.53368126237E+02  0.62452991666E+02  0.39553267541E+02  0.19396503303E+03  0.17120000000E+03 0.  0.
        998    1    1    2    0    0  0.36273722515E+02  0.20857271178E+02  0.99622987260E+03  0.99715834639E+03  0.10000000000E+02 0. -1.
</event>
<event>
 5    1  0.1360042E-008  0.3756912E+03  0.7957747E-01  0.3470137E+00
         13   -1    0    0    0    0  0.00000000000E+00  0.00000000000E+00  0.14999999963E+04  0.15000000000E+04  0.10566000000E+00 0. -1.
        994   -1    0    0    0    0 -0.00000000000E+00 -0.00000000000E+00  0.11368683772E-12  0.17120000000E+03  0.17120000000E+03 0.  0.
         13    1    1    2    0    0  0.36874147774E+01 -0.57408558048E+02  0.28440924054E+03  0.29016885917E+03  0.10566000000E+00 0. -1.
        994    1    1    2    0    0  0.58257333474E+01  0.21325291697E+02  0.79833196841E+01  0.17280590449E+03  0.17120000000E+03 0.  0.
        998    1    1    2    0    0 -0.95131481249E+01  0.36083266351E+02  0.12076074361E+04  0.12082252363E+04  0.10000000000E+02 0. -1.
</event>
<event>
 5    1  0.1360042E-008  0.3815170E+03  0.7957747E-01  0.3444580E+00
         13   -1    0    0    0    0  0.00000000000E+00  0.00000000000E+00  0.14999999963E+04  0.15000000000E+04  0.10566000000E+00 0.  1.
        994   -1    0    0    0    0 -0.00000000000E+00 -0.00000000000E+00  0.11368683772E-12  0.17120000000E+03  0.17120000000E+03 0.  0.
         13    1    1    2    0    0 -0.12142106496E+02  0.49393530251E+02  0.28396384472E+03  0.28848332336E+03  0.10566000000E+00 0.  1.
        994    1    1    2    0    0  0.20785204035E+02 -0.57477652662E+02  0.15896446155E+02  0.18247696365E+03  0.17120000000E+03 0.  0.
        998    1    1    2    0    0 -0.86430975389E+01  0.80841224111E+01  0.12001397054E+04  0.12002397130E+04  0.10000000000E+02 0.  1.
</event>
<event>
 5    1  0.1360042E-008  0.3797961E+03  0.7957747E-01  0.3452047E+00
         13   -1    0    0    0    0  0.00000000000E+00  0.00000000000E+00  0.14999999963E+04  0.15000000000E+04  0.10566000000E+00 0.  1.
        994   -1    0    0    0    0 -0.00000000000E+00 -0.00000000000E+00  0.11368683772E-12  0.17120000000E+03  0.17120000000E+03 0.  0.
         13    1    1    2    0    0  0.13396048540E+02  0.14645030918E+01  0.20137137984E+02  0.24230443166E+02  0.10566000000E+00 0.  1.
        994    1    1    2    0    0  0.40998289768E+00 -0.85224217119E+01  0.44796737290E+01  0.17147100990E+03  0.17120000000E+03 0.  0.
        998    1    1    2    0    0 -0.13806031438E+02  0.70579186200E+01  0.14753831846E+04  0.14754985469E+04  0.10000000000E+02 0.  1.
</event>
<event>
 5    1  0.1360042E-008  0.3851374E+03  0.7957747E-01  0.3429090E+00
         13   -1    0    0    0    0  0.00000000000E+00  0.00000000000E+00  0.14999999963E+04  0.15000000000E+04  0.10566000000E+00 0.  1.
        994   -1    0    0    0    0 -0.00000000000E+00 -0.00000000000E+00  0.11368683772E-12  0.17120000000E+03  0.17120000000E+03 0.  0.
         13    1    1    2    0    0  0.41740356184E+01 -0.10764916406E+02  0.40061620780E+02  0.41692332894E+02  0.10566000000E+00 0.  1.
        994    1    1    2    0    0 -0.50552541751E+01  0.19485553703E+02  0.28951699286E+01  0.17240378304E+03  0.17120000000E+03 0.  0.
        998    1    1    2    0    0  0.88121855672E+00 -0.87206372971E+01  0.14570432056E+04  0.14571038841E+04  0.10000000000E+02 0.  1.
</event>
<event>
 5    1  0.1360042E-008  0.3559091E+03  0.7957747E-01  0.3563267E+00
         13   -1    0    0    0    0  0.00000000000E+00  0.00000000000E+00  0.14999999963E+04  0.15000000000E+04  0.10566000000E+00 0.  1.
        994   -1    0    0    0    0 -0.00000000000E+00 -0.00000000000E+00  0.11368683772E-12  0.17120000000E+03  0.17120000000E+03 0.  0.
         13    1    1    2    0    0 -0.12656243742E+03  0.23863995956E+03  0.89464147302E+03  0.93453221308E+03  0.10566000000E+00 0.  1.
        994    1    1    2    0    0  0.90709266627E+02 -0.26776302954E+03  0.36791529257E+03  0.49456679382E+03  0.17120000000E+03 0.  0.
        998    1    1    2    0    0  0.35853170797E+02  0.29123069980E+02  0.23744323069E+03  0.24210099310E+03  0.10000000000E+02 0.  1.
</event>
<event>
 5    1  0.1360042E-008  0.3809914E+03  0.7957747E-01  0.3446853E+00
         13   -1    0    0    0    0  0.00000000000E+00  0.00000000000E+00  0.14999999963E+04  0.15000000000E+04  0.10566000000E+00 0. -1.
        994   -1    0    0    0    0 -0.00000000000E+00 -0.00000000000E+00  0.11368683772E-12  0.17120000000E+03  0.17120000000E+03 0.  0.
         13    1    1    2    0    0  0.40036633181E+02  0.19955165230E+01  0.19537072198E+03  0.19944082895E+03  0.10566000000E+00 0. -1.
        994    1    1    2    0    0 -0.38506346459E+02 -0.29604344444E+02  0.11534516153E+02  0.17833014605E+03  0.17120000000E+03 0.  0.
        998    1    1    2    0    0 -0.15302867223E+01  0.27608827921E+02  0.12930947581E+04  0.12934290250E+04  0.10000000000E+02 0. -1.
</event>
<event>
 5    1  0.1360042E-008  0.3826062E+03  0.7957747E-01  0.3439888E+00
         13   -1    0    0    0    0  0.00000000000E+00  0.00000000000E+00  0.14999999963E+04  0.15000000000E+04  0.10566000000E+00 0. -1.
        994   -1    0    0    0    0 -0.00000000000E+00 -0.00000000000E+00  0.11368683772E-12  0.17120000000E+03  0.17120000000E+03 0.  0.
         13    1    1    2    0    0  0.53668971552E+01  0.13104002586E+02  0.34488208085E+02  0.37282249527E+02  0.10566000000E+00 0. -1.
        994    1    1    2    0    0 -0.48691741923E+01 -0.88314359800E+01  0.31604467262E+01  0.17152589175E+03  0.17120000000E+03 0.  0.
        998    1    1    2    0    0 -0.49772296288E+00 -0.42725666057E+01  0.14623513415E+04  0.14623918587E+04  0.10000000000E+02 0. -1.
</event>
<event>
 5    1  0.1360042E-008  0.3830799E+03  0.7957747E-01  0.3437857E+00
         13   -1    0    0    0    0  0.00000000000E+00  0.00000000000E+00  0.14999999963E+04  0.15000000000E+04  0.10566000000E+00 0. -1.
        994   -1    0    0    0    0 -0.00000000000E+00 -0.00000000000E+00  0.11368683772E-12  0.17120000000E+03  0.17120000000E+03 0.  0.
         13    1    1    2    0    0  0.25175219493E+02 -0.25264705819E+02  0.20724048183E+03  0.21028724524E+03  0.10566000000E+00 0. -1.
        994    1    1    2    0    0 -0.35095990478E+02  0.20721059024E+02  0.81029258405E+01  0.17617090634E+03  0.17120000000E+03 0.  0.
        998    1    1    2    0    0  0.99207709848E+01  0.45436467945E+01  0.12846565886E+04  0.12847418484E+04  0.10000000000E+02 0. -1.
</event>
<event>
 5    1  0.1360042E-008  0.3774890E+03  0.7957747E-01  0.3462165E+00
         13   -1    0    0    0    0  0.00000000000E+00  0.00000000000E+00  0.14999999963E+04  0.15000000000E+04  0.10566000000E+00 0. -1.
        994   -1    0    0    0    0 -0.00000000000E+00 -0.00000000000E+00  0.11368683772E-12  0.17120000000E+03  0.17120000000E+03 0.  0.
         13    1    1    2    0    0  0.10223127076E+02  0.77388382108E+01  0.12685391469E+02  0.18036969391E+02  0.10566000000E+00 0. -1.
        994    1    1    2    0    0 -0.13121561392E+02 -0.53439946418E+01  0.60830237361E+01  0.17189292257E+03  0.17120000000E+03 0.  0.
        998    1    1    2    0    0  0.28984343159E+01 -0.23948435690E+01  0.14812315811E+04  0.14812701080E+04  0.10000000000E+02 0. -1.
</event>
<event>
 5    1  0.1360042E-008  0.3754013E+03  0.7957747E-01  0.3471430E+00
         13   -1    0    0    0    0  0.00000000000E+00  0.00000000000E+00  0.14999999963E+04  0.15000000000E+04  0.10566000000E+00 0.  1.
        994   -1    0    0    0    0 -0.00000000000E+00 -0.00000000000E+00  0.11368683772E-12  0.17120000000E+03  0.17120000000E+03 0.  0.
         13    1    1    2    0    0 -0.65120033005E+02 -0.13065745259E+02  0.29158024963E+03  0.29904913566E+03  0.10566000000E+00 0.  1.
        994    1    1    2    0    0  0.59902074168E+02 -0.12933834226E+01  0.18758235747E+02  0.18234923290E+03  0.17120000000E+03 0.  0.
        998    1    1    2    0    0  0.52179588369E+01  0.14359128682E+02  0.11896615109E+04  0.11898016314E+04  0.10000000000E+02 0.  1.
</event>
<event>
 5    1  0.1360042E-008  0.3748224E+03  0.7957747E-01  0.3474018E+00
         13   -1    0    0    0    0  0.00000000000E+00  0.00000000000E+00  0.14999999963E+04  0.15000000000E+04  0.10566000000E+00 0. -1.
        994   -1    0    0    0    0 -0.00000000000E+00 -0.00000000000E+00  0.11368683772E-12  0.17120000000E+03  0.17120000000E+03 0.  0.
         13    1    1    2    0    0 -0.90300396785E+01  0.98787073506E+01  0.60326879188E+00  0.13397968980E+02  0.10566000000E+00 0. -1.
        994    1    1    2    0    0 -0.17713444085E+00  0.14350914836E+02  0.14244574346E+02  0.17239004621E+03  0.17120000000E+03 0.  0.
        998    1    1    2    0    0  0.92071741193E+01 -0.24229622187E+02  0.14851521531E+04  0.14854119848E+04  0.10000000000E+02 0. -1.
</event>
<event>
 5    1  0.1360042E-008  0.3784404E+03  0.7957747E-01  0.3457978E+00
         13   -1    0    0    0    0  0.00000000000E+00  0.00000000000E+00  0.14999999963E+04  0.15000000000E+04  0.10566000000E+00 0.  1.
        994   -1    0    0    0    0 -0.00000000000E+00 -0.00000000000E+00  0.11368683772E-12  0.17120000000E+03  0.17120000000E+03 0.  0.
         13    1    1    2    0    0 -0.61943027358E+02  0.51561944475E+01  0.30681045862E+03  0.31304343734E+03  0.10566000000E+00 0.  1.
        994    1    1    2    0    0  0.63783310709E+02 -0.59471323525E+01  0.18837937743E+02  0.18376067862E+03  0.17120000000E+03 0.  0.
        998    1    1    2    0    0 -0.18402833517E+01  0.79093790503E+00  0.11743515999E+04  0.11743958840E+04  0.10000000000E+02 0.  0.
</event>
<event>
 5    1  0.1360042E-008  0.3779605E+03  0.7957747E-01  0.3460087E+00
         13   -1    0    0    0    0  0.00000000000E+00  0.00000000000E+00  0.14999999963E+04  0.15000000000E+04  0.10566000000E+00 0. -1.
        994   -1    0    0    0    0 -0.00000000000E+00 -0.00000000000E+00  0.11368683772E-12  0.17120000000E+03  0.17120000000E+03 0.  0.
         13    1    1    2    0    0 -0.30561306980E+02 -0.88187616373E+01  0.98198722687E+02  0.10322191794E+03  0.10566000000E+00 0. -1.
        994    1    1    2    0    0  0.11185346851E+02  0.14678463606E+02  0.63133051393E+01  0.17230747836E+03  0.17120000000E+03 0.  0.
        998    1    1    2    0    0  0.19375960128E+02 -0.58597019691E+01  0.13954879685E+04  0.13956706037E+04  0.10000000000E+02 0. -1.
</event>
<event>
 5    1  0.1360042E-008  0.3839433E+03  0.7957747E-01  0.3434166E+00
         13   -1    0    0    0    0  0.00000000000E+00  0.00000000000E+00  0.14999999963E+04  0.15000000000E+04  0.10566000000E+00 0. -1.
        994   -1    0    0    0    0 -0.00000000000E+00 -0.00000000000E+00  0.11368683772E-12  0.17120000000E+03  0.17120000000E+03 0.  0.
         13    1    1    2    0    0  0.27405183272E+02  0.30693834079E+02  0.38000154640E+02  0.56010520774E+02  0.10566000000E+00 0. -1.
        994    1    1    2    0    0 -0.22927395916E+02 -0.30022886525E+02  0.23775234310E+02  0.17692298032E+03  0.17120000000E+03 0.  0.
        998    1    1    2    0    0 -0.44777873562E+01 -0.67094755379E+00  0.14382246073E+04  0.14382664989E+04  0.10000000000E+02 0. -1.
</event>
<event>
 5    1  0.1360042E-008  0.3716854E+03  0.7957747E-01  0.3488181E+00
         13   -1    0    0    0    0  0.00000000000E+00  0.00000000000E+00  0.14999999963E+04  0.15000000000E+04  0.10566000000E+00 0. -1.
        994   -1    0    0    0    0 -0.00000000000E+00 -0.00000000000E+00  0.11368683772E-12  0.17120000000E+03  0.17120000000E+03 0.  0.
         13    1    1    2    0    0  0.44124948928E+02  0.47874890910E+02  0.24630186292E+03  0.25476191855E+03  0.10566000000E+00 0. -1.
        994    1    1    2    0    0 -0.37935635436E+02 -0.19827834084E+02  0.14715878724E+02  0.17708261498E+03  0.17120000000E+03 0.  0.
        998    1    1    2    0    0 -0.61893134921E+01 -0.28047056826E+02  0.12389822546E+04  0.12393554665E+04  0.10000000000E+02 0. -1.
</event>
<event>
 5    1  0.1360042E-008  0.3816405E+03  0.7957747E-01  0.3444046E+00
         13   -1    0    0    0    0  0.00000000000E+00  0.00000000000E+00  0.14999999963E+04  0.15000000000E+04  0.10566000000E+00 0. -1.
        994   -1    0    0    0    0 -0.00000000000E+00 -0.00000000000E+00  0.11368683772E-12  0.17120000000E+03  0.17120000000E+03 0.  0.
         13    1    1    2    0    0  0.16164188406E+01  0.32832294408E+02  0.19479513826E+03  0.19754930884E+03  0.10566000000E+00 0. -1.
        994    1    1    2    0    0 -0.78112600067E+01  0.29544450795E+01  0.35392579979E+01  0.17144010871E+03  0.17120000000E+03 0.  0.
        998    1    1    2    0    0  0.61948411661E+01 -0.35786739488E+02  0.13016656000E+04  0.13022105825E+04  0.10000000000E+02 0. -1.
</event>
<event>
 5    1  0.1360042E-008  0.3837224E+03  0.7957747E-01  0.3435109E+00
         13   -1    0    0    0    0  0.00000000000E+00  0.00000000000E+00  0.14999999963E+04  0.15000000000E+04  0.10566000000E+00 0. -1.
        994   -1    0    0    0    0 -0.00000000000E+00 -0.00000000000E+00  0.11368683772E-12  0.17120000000E+03  0.17120000000E+03 0.  0.
         13    1    1    2    0    0  0.74935574886E+01 -0.13881673523E+02  0.52186083660E+02  0.54518370807E+02  0.10566000000E+00 0. -1.
        994    1    1    2    0    0 -0.67786629723E+01  0.17668829112E+02  0.34493647847E+01  0.17227732268E+03  0.17120000000E+03 0.  0.
        998    1    1    2    0    0 -0.71489451624E+00 -0.37871555888E+01  0.14443645478E+04  0.14444043065E+04  0.10000000000E+02 0. -1.
</event>
<event>
 5    1  0.1360042E-008  0.3832975E+03  0.7957747E-01  0.3436925E+00
         13   -1    0    0    0    0  0.00000000000E+00  0.00000000000E+00  0.14999999963E+04  0.15000000000E+04  0.10566000000E+00 0.  1.
        994   -1    0    0    0    0 -0.00000000000E+00 -0.00000000000E+00  0.11368683772E-12  0.17120000000E+03  0.17120000000E+03 0.  0.
         13    1    1    2    0    0 -0.28025486769E+02  0.21050372300E+02  0.21202265892E+03  0.21490036096E+03  0.10566000000E+00 0.  1.
        994    1    1    2    0    0  0.26808236980E+02 -0.25505978066E+02  0.70189310360E+01  0.17529387291E+03  0.17120000000E+03 0.  0.
        998    1    1    2    0    0  0.12172497882E+01  0.44556057662E+01  0.12809584063E+04  0.12810057661E+04  0.10000000000E+02 0.  0.
</event>
<event>
 5    1  0.1360042E-008  0.3817845E+03  0.7957747E-01  0.3443425E+00
         13   -1    0    0    0    0  0.00000000000E+00  0.00000000000E+00  0.14999999963E+04  0.15000000000E+04  0.10566000000E+00 0.  1.
        994   -1    0    0    0    0 -0.00000000000E+00 -0.00000000000E+00  0.11368683772E-12  0.17120000000E+03  0.17120000000E+03 0.  0.
         13    1    1    2    0    0 -0.22125638036E+02 -0.10872967324E+02  0.99440180152E+02  0.10245060209E+03  0.10566000000E+00 0.  1.
        994    1    1    2    0    0  0.56767899800E+01 -0.38378095816E+01  0.33910940825E+01  0.17137063414E+03  0.17120000000E+03 0.  0.
        998    1    1    2    0    0  0.16448848056E+02  0.14710776905E+02  0.13971687220E+04  0.13973787638E+04  0.10000000000E+02 0.  1.
</event>
<event>
 5    1  0.1360042E-008  0.3791293E+03  0.7957747E-01  0.3454958E+00
         13   -1    0    0    0    0  0.00000000000E+00  0.00000000000E+00  0.14999999963E+04  0.15000000000E+04  0.10566000000E+00 0.  1.
        994   -1    0    0    0    0 -0.00000000000E+00 -0.00000000000E+00  0.11368683772E-12  0.17120000000E+03  0.17120000000E+03 0.  0.
         13    1    1    2    0    0 -0.23048918622E+02 -0.27001820261E+02  0.13620802745E+03  0.14075861911E+03  0.10566000000E+00 0.  1.
        994    1    1    2    0    0 -0.99698375633E+00  0.29006167255E+02  0.74024763248E+01  0.17380042684E+03  0.17120000000E+03 0.  0.
        998    1    1    2    0    0  0.24045902379E+02 -0.20043469944E+01  0.13563894925E+04  0.13566409540E+04  0.10000000000E+02 0.  1.
</event>
<event>
 5    1  0.1360042E-008  0.3822916E+03  0.7957747E-01  0.3441240E+00
         13   -1    0    0    0    0  0.00000000000E+00  0.00000000000E+00  0.14999999963E+04  0.15000000000E+04  0.10566000000E+00 0.  1.
        994   -1    0    0    0    0 -0.00000000000E+00 -0.00000000000E+00  0.11368683772E-12  0.17120000000E+03  0.17120000000E+03 0.  0.
         13    1    1    2    0    0 -0.17033983808E+02  0.20628093845E+02  0.11302242205E+03  0.11614539987E+03  0.10566000000E+00 0.  1.
        994    1    1    2    0    0  0.25290393679E+02 -0.11250012697E+02  0.55269187361E+01  0.17351124929E+03  0.17120000000E+03 0.  0.
        998    1    1    2    0    0 -0.82564098705E+01 -0.93780811487E+01  0.13814506555E+04  0.13815433508E+04  0.10000000000E+02 0.  1.
</event>
<event>
 5    1  0.1360042E-008  0.3731419E+03  0.7957747E-01  0.3481575E+00
         13   -1    0    0    0    0  0.00000000000E+00  0.00000000000E+00  0.14999999963E+04  0.15000000000E+04  0.10566000000E+00 0. -1.
        994   -1    0    0    0    0 -0.00000000000E+00 -0.00000000000E+00  0.11368683772E-12  0.17120000000E+03  0.17120000000E+03 0.  0.
         13    1    1    2    0    0 -0.30900552763E+02  0.34932399058E+01  0.60335553199E+02  0.67878104202E+02  0.10566000000E+00 0. -1.
        994    1    1    2    0    0  0.20014878168E+02 -0.68866847175E+01  0.91700135966E+01  0.17274707211E+03  0.17120000000E+03 0.  0.
        998    1    1    2    0    0  0.10885674595E+02  0.33934448117E+01  0.14304944295E+04  0.14305748237E+04  0.10000000000E+02 0. -1.
</event>
<event>
 5    1  0.1360042E-008  0.3808168E+03  0.7957747E-01  0.3447609E+00
         13   -1    0    0    0    0  0.00000000000E+00  0.00000000000E+00  0.14999999963E+04  0.15000000000E+04  0.10566000000E+00 0. -1.
        994   -1    0    0    0    0 -0.00000000000E+00 -0.00000000000E+00  0.11368683772E-12  0.17120000000E+03  0.17120000000E+03 0.  0.
         13    1    1    2    0    0 -0.27567322176E+02  0.24659918898E+02  0.17051710363E+03  0.17448255685E+03  0.10566000000E+00 0. -1.
        994    1    1    2    0    0  0.36457716193E+02 -0.69006749712E+01  0.83251076125E+01  0.17537255145E+03  0.17120000000E+03 0.  0.
        998    1    1    2    0    0 -0.88903940161E+01 -0.17759243927E+02  0.13211577850E+04  0.13213448917E+04  0.10000000000E+02 0. -1.
</event>
<event>
 5    1  0.1360042E-008  0.3819646E+03  0.7957747E-01  0.3442649E+00
         13   -1    0    0    0    0  0.00000000000E+00  0.00000000000E+00  0.14999999963E+04  0.15000000000E+04  0.10566000000E+00 0. -1.
        994   -1    0    0    0    0 -0.00000000000E+00 -0.00000000000E+00  0.11368683772E-12  0.17120000000E+03  0.17120000000E+03 0.  0.
         13    1    1    2    0    0  0.21822013622E+02  0.16069993529E+02  0.10635051273E+03  0.10974920361E+03  0.10566000000E+00 0. -1.
        994    1    1    2    0    0 -0.20087578339E+02 -0.24813958982E+02  0.65373567118E+01  0.17427398084E+03  0.17120000000E+03 0.  0.
        998    1    1    2    0    0 -0.17344352830E+01  0.87439654533E+01  0.13871121268E+04  0.13871768156E+04  0.10000000000E+02 0. -1.
</event>
<event>
 5    1  0.1617694E-008  0.3861109E+03  0.7957747E-01  0.3424975E+00
         13   -1    0    0    0    0  0.00000000000E+00  0.00000000000E+00  0.14999999963E+04  0.15000000000E+04  0.10566000000E+00 0.  1.
        994   -1    0    0    0    0 -0.00000000000E+00 -0.00000000000E+00  0.11368683772E-12  0.17120000000E+03  0.17120000000E+03 0.  0.
         13    1    1    2    0    0 -0.32911983886E+01 -0.10293376135E+02  0.55320160137E+02  0.56365919319E+02  0.10566000000E+00 0.  1.
        994    1    1    2    0    0  0.30364435847E+01  0.53448782508E+01  0.12034508863E+01  0.17131455282E+03  0.17120000000E+03 0.  0.
        998    1    1    2    0    0  0.25475480388E+00  0.49484978844E+01  0.14434763853E+04  0.14435195279E+04  0.10000000000E+02 0.  1.
</event>
<event>
 5    1  0.1360042E-008  0.3861035E+03  0.7957747E-01  0.3425006E+00
         13   -1    0    0    0    0  0.00000000000E+00  0.00000000000E+00  0.14999999963E+04  0.15000000000E+04  0.10566000000E+00 0. -1.
        994   -1    0    0    0    0 -0.00000000000E+00 -0.00000000000E+00  0.11368683772E-12  0.17120000000E+03  0.17120000000E+03 0.  0.
         13    1    1    2    0    0 -0.45005638111E+01  0.91882352621E+01  0.49604066586E+02  0.50648329961E+02  0.10566000000E+00 0. -1.
        994    1    1    2    0    0 -0.66714159354E+01 -0.89814193693E+01  0.14935414944E+01  0.17157168866E+03  0.17120000000E+03 0.  0.
        998    1    1    2    0    0  0.11171979746E+02 -0.20681589286E+00  0.14489023882E+04  0.14489799814E+04  0.10000000000E+02 0. -1.
</event>
<event>
 5    1  0.1360042E-008  0.3748929E+03  0.7957747E-01  0.3473702E+00
         13   -1    0    0    0    0  0.00000000000E+00  0.00000000000E+00  0.14999999963E+04  0.15000000000E+04  0.10566000000E+00 0. -1.
        994   -1    0    0    0    0 -0.00000000000E+00 -0.00000000000E+00  0.11368683772E-12  0.17120000000E+03  0.17120000000E+03 0.  0.
         13    1    1    2    0    0 -0.82286207070E+01 -0.20713621624E+02  0.33378403221E+02  0.40135935085E+02  0.10566000000E+00 0. -1.
        994    1    1    2    0    0  0.92531517403E+01  0.21497464497E+02  0.85985680796E+01  0.17300617668E+03  0.17120000000E+03 0.  0.
        998    1    1    2    0    0 -0.10245310333E+01 -0.78384287230E+00  0.14580230250E+04  0.14580578882E+04  0.10000000000E+02 0.  0.
</event>
<event>
 5    1  0.1360042E-008  0.3807183E+03  0.7957747E-01  0.3448037E+00
         13   -1    0    0    0    0  0.00000000000E+00  0.00000000000E+00  0.14999999963E+04  0.15000000000E+04  0.10566000000E+00 0. -1.
        994   -1    0    0    0    0 -0.00000000000E+00 -0.00000000000E+00  0.11368683772E-12  0.17120000000E+03  0.17120000000E+03 0.  0.
         13    1    1    2    0    0 -0.18942651056E+02  0.19184664697E+02  0.10622583809E+03  0.10959386494E+03  0.10566000000E+00 0. -1.
        994    1    1    2    0    0  0.95634733283E+00  0.55425347251E+01  0.38765056045E+01  0.17133622380E+03  0.17120000000E+03 0.  0.
        998    1    1    2    0    0  0.17986303723E+02 -0.24727199422E+02  0.13898976526E+04  0.13902699113E+04  0.10000000000E+02 0. -1.
</event>
<event>
 5    1  0.1360042E-008  0.3861738E+03  0.7957747E-01  0.3424709E+00
         13   -1    0    0    0    0  0.00000000000E+00  0.00000000000E+00  0.14999999963E+04  0.15000000000E+04  0.10566000000E+00 0. -1.
        994   -1    0    0    0    0 -0.00000000000E+00 -0.00000000000E+00  0.11368683772E-12  0.17120000000E+03  0.17120000000E+03 0.  0.
         13    1    1    2    0    0  0.23229909956E+00 -0.12403022963E+02  0.74869832827E+02  0.75890658009E+02  0.10566000000E+00 0. -1.
        994    1    1    2    0    0 -0.37715326888E+01  0.74840427406E+01  0.12786048896E+01  0.17140977272E+03  0.17120000000E+03 0.  0.
        998    1    1    2    0    0  0.35392335893E+01  0.49189802221E+01  0.14238515586E+04  0.14238995693E+04  0.10000000000E+02 0. -1.
</event>
<event>
 5    1  0.1360042E-008  0.3858386E+03  0.7957747E-01  0.3426123E+00
         13   -1    0    0    0    0  0.00000000000E+00  0.00000000000E+00  0.14999999963E+04  0.15000000000E+04  0.10566000000E+00 0.  1.
        994   -1    0    0    0    0 -0.00000000000E+00 -0.00000000000E+00  0.11368683772E-12  0.17120000000E+03  0.17120000000E+03 0.  0.
         13    1    1    2    0    0  0.53692642661E+01  0.95339651224E+01  0.49111745879E+02  0.50316003786E+02  0.10566000000E+00 0.  1.
        994    1    1    2    0    0 -0.10885401991E+01 -0.10173752122E+02  0.15577710704E+01  0.17151255582E+03  0.17120000000E+03 0.  0.
        998    1    1    2    0    0 -0.42807240671E+01  0.63978699989E+00  0.14493304793E+04  0.14493714404E+04  0.10000000000E+02 0.  1.
</event>
<event>
 5    1  0.1360042E-008  0.3815838E+03  0.7957747E-01  0.3444291E+00
         13   -1    0    0    0    0  0.00000000000E+00  0.00000000000E+00  0.14999999963E+04  0.15000000000E+04  0.10566000000E+00 0.  1.
        994   -1    0    0    0    0 -0.00000000000E+00 -0.00000000000E+00  0.11368683772E-12  0.17120000000E+03  0.17120000000E+03 0.  0.
         13    1    1    2    0    0 -0.27331220980E+02  0.24214662848E+01  0.10877302625E+03  0.11218039732E+03  0.10566000000E+00 0.  1.
        994    1    1    2    0    0  0.20730052059E+02 -0.71056795259E+01  0.49344151469E+01  0.17266735126E+03  0.17120000000E+03 0.  0.
        998    1    1    2    0    0  0.66011689207E+01  0.46842132411E+01  0.13862925549E+04  0.13863522514E+04  0.10000000000E+02 0.  1.
</event>
<event>
 5    1  0.1360042E-008  0.3830554E+03  0.7957747E-01  0.3437962E+00
         13   -1    0    0    0    0  0.00000000000E+00  0.00000000000E+00  0.14999999963E+04  0.15000000000E+04  0.10566000000E+00 0. -1.
        994   -1    0    0    0    0 -0.00000000000E+00 -0.00000000000E+00  0.11368683772E-12  0.17120000000E+03  0.17120000000E+03 0.  0.
         13    1    1    2    0    0  0.11088756747E+02 -0.41689707385E+01  0.26223154011E+02  0.28775090157E+02  0.10566000000E+00 0. -1.
        994    1    1    2    0    0 -0.54310466767E+01  0.48516680312E+01  0.27742386186E+01  0.17137727781E+03  0.17120000000E+03 0.  0.
        998    1    1    2    0    0 -0.56577100706E+01 -0.68269729267E+00  0.14710026036E+04  0.14710476320E+04  0.10000000000E+02 0. -1.
</event>
<event>
 5    1  0.1360042E-008  0.3729489E+03  0.7957747E-01  0.3482447E+00
         13   -1    0    0    0    0  0.00000000000E+00  0.00000000000E+00  0.14999999963E+04  0.15000000000E+04  0.10566000000E+00 0.  1.
        994   -1    0    0    0    0 -0.00000000000E+00 -0.00000000000E+00  0.11368683772E-12  0.17120000000E+03  0.17120000000E+03 0.  0.
         13    1    1    2    0    0 -0.10034785402E+03  0.16101771907E+02  0.43025352229E+03  0.44209395322E+03  0.10566000000E+00 0.  1.
        994    1    1    2    0    0  0.47021194129E+02 -0.64442956348E+02  0.35341695759E+02  0.19215192630E+03  0.17120000000E+03 0.  0.
        998    1    1    2    0    0  0.53326659891E+02  0.48341184441E+02  0.10344047782E+04  0.10369541205E+04  0.10000000000E+02 0.  1.
</event>
<event>
 5    1  0.1360042E-008  0.3850058E+03  0.7957747E-01  0.3429647E+00
         13   -1    0    0    0    0  0.00000000000E+00  0.00000000000E+00  0.14999999963E+04  0.15000000000E+04  0.10566000000E+00 0. -1.
        994   -1    0    0    0    0 -0.00000000000E+00 -0.00000000000E+00  0.11368683772E-12  0.17120000000E+03  0.17120000000E+03 0.  0.
         13    1    1    2    0    0  0.11972018502E+02 -0.46648244055E+01  0.45824595061E+02  0.47591958252E+02  0.10566000000E+00 0. -1.
        994    1    1    2    0    0 -0.27926145386E+02  0.45370503832E+01  0.42640322687E+01  0.17357441169E+03  0.17120000000E+03 0.  0.
        998    1    1    2    0    0  0.15954126884E+02  0.12777402224E+00  0.14499113689E+04  0.14500336301E+04  0.10000000000E+02 0. -1.
</event>
<event>
 5    1  0.1360042E-008  0.3797467E+03  0.7957747E-01  0.3452262E+00
         13   -1    0    0    0    0  0.00000000000E+00  0.00000000000E+00  0.14999999963E+04  0.15000000000E+04  0.10566000000E+00 0. -1.
        994   -1    0    0    0    0 -0.00000000000E+00 -0.00000000000E+00  0.11368683772E-12  0.17120000000E+03  0.17120000000E+03 0.  0.
         13    1    1    2    0    0 -0.32279660460E+02  0.86812295909E+01  0.14275705961E+03  0.14661831215E+03  0.10566000000E+00 0. -1.
        994    1    1    2    0    0  0.17682515247E+01 -0.99194576188E+01  0.46007962405E+01  0.17155794846E+03  0.17120000000E+03 0.  0.
        998    1    1    2    0    0  0.30511408936E+02  0.12382280280E+01  0.13526421404E+04  0.13530237394E+04  0.10000000000E+02 0. -1.
</event>
<event>
 5    1  0.1360042E-008  0.3747904E+03  0.7957747E-01  0.3474161E+00
         13   -1    0    0    0    0  0.00000000000E+00  0.00000000000E+00  0.14999999963E+04  0.15000000000E+04  0.10566000000E+00 0.  1.
        994   -1    0    0    0    0 -0.00000000000E+00 -0.00000000000E+00  0.11368683772E-12  0.17120000000E+03  0.17120000000E+03 0.  0.
         13    1    1    2    0    0 -0.22371459843E+02  0.74996006118E+00  0.35939431184E+02  0.42340270824E+02  0.10566000000E+00 0.  1.
        994    1    1    2    0    0 -0.23979248915E+01  0.19269038464E+02  0.80699922808E+01  0.17248655212E+03  0.17120000000E+03 0.  0.
        998    1    1    2    0    0  0.24769384735E+02 -0.20018998525E+02  0.14559905728E+04  0.14563731771E+04  0.10000000000E+02 0.  1.
</event>
<event>
 5    1  0.1360042E-008  0.3819358E+03  0.7957747E-01  0.3442773E+00
         13   -1    0    0    0    0  0.00000000000E+00  0.00000000000E+00  0.14999999963E+04  0.15000000000E+04  0.10566000000E+00 0. -1.
        994   -1    0    0    0    0 -0.00000000000E+00 -0.00000000000E+00  0.11368683772E-12  0.17120000000E+03  0.17120000000E+03 0.  0.
         13    1    1    2    0    0 -0.17536569847E+02  0.26997282114E+02  0.15919300657E+03  0.16241554430E+03  0.10566000000E+00 0. -1.
        994    1    1    2    0    0  0.43615807583E+02 -0.45151273032E+00  0.95046898237E+01  0.17692462142E+03  0.17120000000E+03 0.  0.
        998    1    1    2    0    0 -0.26079237736E+02 -0.26545769384E+02  0.13313022999E+04  0.13318598343E+04  0.10000000000E+02 0. -1.
</event>
<event>
 5    1  0.1360042E-008  0.3809002E+03  0.7957747E-01  0.3447248E+00
         13   -1    0    0    0    0  0.00000000000E+00  0.00000000000E+00  0.14999999963E+04  0.15000000000E+04  0.10566000000E+00 0.  1.
        994   -1    0    0    0    0 -0.00000000000E+00 -0.00000000000E+00  0.11368683772E-12  0.17120000000E+03  0.17120000000E+03 0.  0.
         13    1    1    2    0    0 -0.33307583191E+01 -0.12073092998E+02  0.19800957853E+02  0.23429524567E+02  0.10566000000E+00 0.  1.
        994    1    1    2    0    0  0.12005860555E+02  0.58809976099E+01  0.42753246065E+01  0.17177440211E+03  0.17120000000E+03 0.  0.
        998    1    1    2    0    0 -0.86751022361E+01  0.61920953878E+01  0.14759237138E+04  0.14759960733E+04  0.10000000000E+02 0.  1.
</event>
<event>
 5    1  0.1360042E-008  0.3699740E+03  0.7957747E-01  0.3496010E+00
         13   -1    0    0    0    0  0.00000000000E+00  0.00000000000E+00  0.14999999963E+04  0.15000000000E+04  0.10566000000E+00 0. -1.
        994   -1    0    0    0    0 -0.00000000000E+00 -0.00000000000E+00  0.11368683772E-12  0.17120000000E+03  0.17120000000E+03 0.  0.
         13    1    1    2    0    0 -0.29966479786E+02  0.54063458552E+02  0.16820303482E+03  0.17920133802E+03  0.10566000000E+00 0. -1.
        994    1    1    2    0    0  0.38057831972E+02 -0.26489896630E+02  0.18479146025E+02  0.17832843866E+03  0.17120000000E+03 0.  0.
        998    1    1    2    0    0 -0.80913521861E+01 -0.27573561921E+02  0.13133178154E+04  0.13136702233E+04  0.10000000000E+02 0. -1.
</event>
<event>
 5    1  0.1360042E-008  0.3792305E+03  0.7957747E-01  0.3454516E+00
         13   -1    0    0    0    0  0.00000000000E+00  0.00000000000E+00  0.14999999963E+04  0.15000000000E+04  0.10566000000E+00 0. -1.
        994   -1    0    0    0    0 -0.00000000000E+00 -0.00000000000E+00  0.11368683772E-12  0.17120000000E+03  0.17120000000E+03 0.  0.
         13    1    1    2    0    0  0.79702261626E+01  0.46889899732E+02  0.21800771615E+03  0.22313574942E+03  0.10566000000E+00 0. -1.
        994    1    1    2    0    0  0.31146656164E+01 -0.46629166010E+02  0.11876619920E+02  0.17786082864E+03  0.17120000000E+03 0.  0.
        998    1    1    2    0    0 -0.11084891779E+02 -0.26073372237E+00  0.12701156602E+04  0.12702034219E+04  0.10000000000E+02 0. -1.
</event>
<event>
 5    1  0.1360042E-008  0.3838494E+03  0.7957747E-01  0.3434567E+00
         13   -1    0    0    0    0  0.00000000000E+00  0.00000000000E+00  0.14999999963E+04  0.15000000000E+04  0.10566000000E+00 0. -1.
        994   -1    0    0    0    0 -0.00000000000E+00 -0.00000000000E+00  0.11368683772E-12  0.17120000000E+03  0.17120000000E+03 0.  0.
         13    1    1    2    0    0  0.76659705479E+00 -0.21101199678E+02  0.10560707619E+03  0.10769732589E+03  0.10566000000E+00 0. -1.
        994    1    1    2    0    0  0.64681482108E+01  0.68245605551E+01  0.24943414704E+01  0.17147615959E+03  0.17120000000E+03 0.  0.
        998    1    1    2    0    0 -0.72347452656E+01  0.14276639123E+02  0.13918985786E+04  0.13920265145E+04  0.10000000000E+02 0. -1.
</event>
<event>
 5    1  0.1360042E-008  0.2950793E+03  0.7957747E-01  0.3931787E+00
         13   -1    0    0    0    0  0.00000000000E+00  0.00000000000E+00  0.14999999963E+04  0.15000000000E+04  0.10566000000E+00 0.  1.
        994   -1    0    0    0    0 -0.00000000000E+00 -0.00000000000E+00  0.11368683772E-12  0.17120000000E+03  0.17120000000E+03 0.  0.
         13    1    1    2    0    0 -0.36275620027E+02 -0.14738270392E+03  0.71678526989E+03  0.73267913599E+03  0.10566000000E+00 0.  1.
        994    1    1    2    0    0  0.53142208127E+02  0.93180422523E+02  0.56854856246E+02  0.20987758362E+03  0.17120000000E+03 0.  0.
        998    1    1    2    0    0 -0.16866588099E+02  0.54202281401E+02  0.72635987014E+03  0.72864328039E+03  0.10000000000E+02 0.  1.
</event>
<event>
 5    1  0.1360042E-008  0.3739343E+03  0.7957747E-01  0.3478003E+00
         13   -1    0    0    0    0  0.00000000000E+00  0.00000000000E+00  0.14999999963E+04  0.15000000000E+04  0.10566000000E+00 0.  1.
        994   -1    0    0    0    0 -0.00000000000E+00 -0.00000000000E+00  0.11368683772E-12  0.17120000000E+03  0.17120000000E+03 0.  0.
         13    1    1    2    0    0  0.10683651281E+02 -0.31516274818E+01  0.53806252358E+01  0.12370749874E+02  0.10566000000E+00 0.  1.
        994    1    1    2    0    0  0.54788873652E+01  0.13045353825E+02  0.79102464311E+01  0.17196572758E+03  0.17120000000E+03 0.  0.
        998    1    1    2    0    0 -0.16162538647E+02 -0.98937263428E+01  0.14867091246E+04  0.14868635225E+04  0.10000000000E+02 0.  1.
</event>
<event>
 5    1  0.1360042E-008  0.3700492E+03  0.7957747E-01  0.3495665E+00
         13   -1    0    0    0    0  0.00000000000E+00  0.00000000000E+00  0.14999999963E+04  0.15000000000E+04  0.10566000000E+00 0. -1.
        994   -1    0    0    0    0 -0.00000000000E+00 -0.00000000000E+00  0.11368683772E-12  0.17120000000E+03  0.17120000000E+03 0.  0.
         13    1    1    2    0    0  0.40980291733E+02  0.15234168495E+03  0.64597110915E+03  0.66495568146E+03  0.10566000000E+00 0. -1.
        994    1    1    2    0    0 -0.45184972220E+02 -0.15667128472E+03  0.10765979913E+03  0.25978384384E+03  0.17120000000E+03 0.  0.
        998    1    1    2    0    0  0.42046804864E+01  0.43295997742E+01  0.74636908800E+03  0.74646047471E+03  0.10000000000E+02 0.  0.
</event>
<event>
 5    1  0.1360042E-008  0.2920962E+03  0.7957747E-01  0.3954112E+00
         13   -1    0    0    0    0  0.00000000000E+00  0.00000000000E+00  0.14999999963E+04  0.15000000000E+04  0.10566000000E+00 0. -1.
        994   -1    0    0    0    0 -0.00000000000E+00 -0.00000000000E+00  0.11368683772E-12  0.17120000000E+03  0.17120000000E+03 0.  0.
         13    1    1    2    0    0  0.74680005011E+02  0.13855654396E+03  0.85808674635E+03  0.87240351584E+03  0.10566000000E+00 0. -1.
        994    1    1    2    0    0  0.45152982654E+02 -0.50857137321E+02  0.53460897612E+02  0.19181435773E+03  0.17120000000E+03 0.  0.
        998    1    1    2    0    0 -0.11983298766E+03 -0.87699406635E+02  0.58845235232E+03  0.60698212643E+03  0.10000000000E+02 0. -1.
</event>
<event>
 5    1  0.1360042E-008  0.3794461E+03  0.7957747E-01  0.3453574E+00
         13   -1    0    0    0    0  0.00000000000E+00  0.00000000000E+00  0.14999999963E+04  0.15000000000E+04  0.10566000000E+00 0. -1.
        994   -1    0    0    0    0 -0.00000000000E+00 -0.00000000000E+00  0.11368683772E-12  0.17120000000E+03  0.17120000000E+03 0.  0.
         13    1    1    2    0    0 -0.51590573053E+02 -0.26433049221E+02  0.31331837085E+03  0.31863569480E+03  0.10566000000E+00 0. -1.
        994    1    1    2    0    0  0.44525163969E+02  0.32002593766E+02  0.14549074129E+02  0.18035457242E+03  0.17120000000E+03 0.  0.
        998    1    1    2    0    0  0.70654090841E+01 -0.55695445445E+01  0.11721325513E+04  0.11722097328E+04  0.10000000000E+02 0. -1.
</event>
<event>
 5    1  0.1360042E-008  0.3752849E+03  0.7957747E-01  0.3471949E+00
         13   -1    0    0    0    0  0.00000000000E+00  0.00000000000E+00  0.14999999963E+04  0.15000000000E+04  0.10566000000E+00 0.  1.
        994   -1    0    0    0    0 -0.00000000000E+00 -0.00000000000E+00  0.11368683772E-12  0.17120000000E+03  0.17120000000E+03 0.  0.
         13    1    1    2    0    0 -0.48581258318E+01  0.27721679605E+02  0.55921981775E+02  0.62604888918E+02  0.10566000000E+00 0.  1.
        994    1    1    2    0    0  0.18849786785E+02 -0.27009922200E+02  0.10225411132E+02  0.17463919775E+03  0.17120000000E+03 0.  0.
        998    1    1    2    0    0 -0.13991660953E+02 -0.71175740513E+00  0.14338526034E+04  0.14339559133E+04  0.10000000000E+02 0.  1.
</event>
<event>
 5    1  0.1360042E-008  0.3723592E+03  0.7957747E-01  0.3485118E+00
         13   -1    0    0    0    0  0.00000000000E+00  0.00000000000E+00  0.14999999963E+04  0.15000000000E+04  0.10566000000E+00 0. -1.
        994   -1    0    0    0    0 -0.00000000000E+00 -0.00000000000E+00  0.11368683772E-12  0.17120000000E+03  0.17120000000E+03 0.  0.
         13    1    1    2    0    0 -0.10195063603E-01 -0.74685740049E+02  0.19434796061E+03  0.20820446880E+03  0.10566000000E+00 0. -1.
        994    1    1    2    0    0  0.36497082965E+01  0.76415420800E+02  0.33120201629E+02  0.19041802610E+03  0.17120000000E+03 0.  0.
        998    1    1    2    0    0 -0.36395132329E+01 -0.17296807510E+01  0.12725318340E+04  0.12725775051E+04  0.10000000000E+02 0. -1.
</event>
<event>
 5    1  0.1360042E-008  0.3832125E+03  0.7957747E-01  0.3437289E+00
         13   -1    0    0    0    0  0.00000000000E+00  0.00000000000E+00  0.14999999963E+04  0.15000000000E+04  0.10566000000E+00 0. -1.
        994   -1    0    0    0    0 -0.00000000000E+00 -0.00000000000E+00  0.11368683772E-12  0.17120000000E+03  0.17120000000E+03 0.  0.
         13    1    1    2    0    0  0.18978772384E+02 -0.31060589226E+01  0.73490981214E+02  0.75965629643E+02  0.10566000000E+00 0. -1.
        994    1    1    2    0    0 -0.10491564321E+02 -0.24623104850E+00  0.28846157418E+01  0.17154560490E+03  0.17120000000E+03 0.  0.
        998    1    1    2    0    0 -0.84872080629E+01  0.33522899711E+01  0.14236243993E+04  0.14236887655E+04  0.10000000000E+02 0. -1.
</event>
<event>
 5    1  0.1360042E-008  0.3847272E+03  0.7957747E-01  0.3430830E+00
         13   -1    0    0    0    0  0.00000000000E+00  0.00000000000E+00  0.14999999963E+04  0.15000000000E+04  0.10566000000E+00 0.  1.
        994   -1    0    0    0    0 -0.00000000000E+00 -0.00000000000E+00  0.11368683772E-12  0.17120000000E+03  0.17120000000E+03 0.  0.
         13    1    1    2    0    0 -0.13216218755E+02  0.13355509435E+02  0.10811782354E+03  0.10973838436E+03  0.10566000000E+00 0.  1.
        994    1    1    2    0    0  0.79946832235E+01  0.48969102940E+01  0.20550092587E+01  0.17146882444E+03  0.17120000000E+03 0.  0.
        998    1    1    2    0    0  0.52215355310E+01 -0.18252419729E+02  0.13898271635E+04  0.13899927912E+04  0.10000000000E+02 0.  1.
</event>
<event>
 5    1  0.1360042E-008  0.3815874E+03  0.7957747E-01  0.3444275E+00
         13   -1    0    0    0    0  0.00000000000E+00  0.00000000000E+00  0.14999999963E+04  0.15000000000E+04  0.10566000000E+00 0. -1.
        994   -1    0    0    0    0 -0.00000000000E+00 -0.00000000000E+00  0.11368683772E-12  0.17120000000E+03  0.17120000000E+03 0.  0.
         13    1    1    2    0    0 -0.37331498417E+01 -0.14626565705E+02  0.32314596091E+02  0.35666750856E+02  0.10566000000E+00 0. -1.
        994    1    1    2    0    0  0.49443309825E+01  0.15033381104E+02  0.41672640573E+01  0.17198039146E+03  0.17120000000E+03 0.  0.
        998    1    1    2    0    0 -0.12111811408E+01 -0.40681539883E+00  0.14635181361E+04  0.14635528577E+04  0.10000000000E+02 0. -1.
</event>
<event>
 5    1  0.1360042E-008  0.3826652E+03  0.7957747E-01  0.3439635E+00
         13   -1    0    0    0    0  0.00000000000E+00  0.00000000000E+00  0.14999999963E+04  0.15000000000E+04  0.10566000000E+00 0.  1.
        994   -1    0    0    0    0 -0.00000000000E+00 -0.00000000000E+00  0.11368683772E-12  0.17120000000E+03  0.17120000000E+03 0.  0.
         13    1    1    2    0    0  0.19068077409E+02  0.21165365138E+02  0.15120586519E+03  0.15386614017E+03  0.10566000000E+00 0.  1.
        994    1    1    2    0    0 -0.69769933872E+01 -0.84542159269E+01  0.31920286358E+01  0.17158024726E+03  0.17120000000E+03 0.  0.
        998    1    1    2    0    0 -0.12091084022E+02 -0.12711149211E+02  0.13456021025E+04  0.13457536126E+04  0.10000000000E+02 0.  1.
</event>
<event>
 5    1  0.1360042E-008  0.3823313E+03  0.7957747E-01  0.3441070E+00
         13   -1    0    0    0    0  0.00000000000E+00  0.00000000000E+00  0.14999999963E+04  0.15000000000E+04  0.10566000000E+00 0.  1.
        994   -1    0    0    0    0 -0.00000000000E+00 -0.00000000000E+00  0.11368683772E-12  0.17120000000E+03  0.17120000000E+03 0.  0.
         13    1    1    2    0    0  0.24261927233E+02 -0.18476940108E+01  0.10474419442E+03  0.10753330886E+03  0.10566000000E+00 0.  1.
        994    1    1    2    0    0 -0.61414396724E+01 -0.28846604437E+01  0.31136871627E+01  0.17136269604E+03  0.17120000000E+03 0.  0.
        998    1    1    2    0    0 -0.18120487560E+02  0.47323544545E+01  0.13921421147E+04  0.13923039951E+04  0.10000000000E+02 0.  1.
</event>
<event>
 5    1  0.1360042E-008  0.3815590E+03  0.7957747E-01  0.3444398E+00
         13   -1    0    0    0    0  0.00000000000E+00  0.00000000000E+00  0.14999999963E+04  0.15000000000E+04  0.10566000000E+00 0.  1.
        994   -1    0    0    0    0 -0.00000000000E+00 -0.00000000000E+00  0.11368683772E-12  0.17120000000E+03  0.17120000000E+03 0.  0.
         13    1    1    2    0    0  0.55176998937E+01  0.20672424349E+02  0.70809889550E+02  0.73971925503E+02  0.10566000000E+00 0.  1.
        994    1    1    2    0    0  0.52869866450E+01 -0.43492497853E+01  0.35041358236E+01  0.17137265584E+03  0.17120000000E+03 0.  0.
        998    1    1    2    0    0 -0.10804686539E+02 -0.16323174564E+02  0.14256859709E+04  0.14258554187E+04  0.10000000000E+02 0.  1.
</event>
<event>
 5    1  0.1360042E-008  0.3857976E+03  0.7957747E-01  0.3426297E+00
         13   -1    0    0    0    0  0.00000000000E+00  0.00000000000E+00  0.14999999963E+04  0.15000000000E+04  0.10566000000E+00 0.  1.
        994   -1    0    0    0    0 -0.00000000000E+00 -0.00000000000E+00  0.11368683772E-12  0.17120000000E+03  0.17120000000E+03 0.  0.
         13    1    1    2    0    0  0.18351317602E+01  0.10438787692E+02  0.45779238609E+02  0.46990273979E+02  0.10566000000E+00 0.  1.
        994    1    1    2    0    0 -0.28558408299E+01 -0.70622708332E+01  0.14250556307E+01  0.17137532576E+03  0.17120000000E+03 0.  0.
        998    1    1    2    0    0  0.10207090698E+01 -0.33765168584E+01  0.14527957020E+04  0.14528344003E+04  0.10000000000E+02 0.  1.
</event>
<event>
 5    1  0.1360042E-008  0.3851892E+03  0.7957747E-01  0.3428870E+00
         13   -1    0    0    0    0  0.00000000000E+00  0.00000000000E+00  0.14999999963E+04  0.15000000000E+04  0.10566000000E+00 0. -1.
        994   -1    0    0    0    0 -0.00000000000E+00 -0.00000000000E+00  0.11368683772E-12  0.17120000000E+03  0.17120000000E+03 0.  0.
         13    1    1    2    0    0 -0.99336497487E+01 -0.18063502615E+02  0.12209820816E+03  0.12382629415E+03  0.10566000000E+00 0. -1.
        994    1    1    2    0    0  0.11180929358E+02  0.25026002340E+02  0.40094084150E+01  0.17342672611E+03  0.17120000000E+03 0.  0.
        998    1    1    2    0    0 -0.12472796096E+01 -0.69624997258E+01  0.13738923797E+04  0.13739469797E+04  0.10000000000E+02 0. -1.
</event>
<event>
 5    1  0.1360042E-008  0.2766591E+03  0.7957747E-01  0.4078166E+00
         13   -1    0    0    0    0  0.00000000000E+00  0.00000000000E+00  0.14999999963E+04  0.15000000000E+04  0.10566000000E+00 0.  1.
        994   -1    0    0    0    0 -0.00000000000E+00 -0.00000000000E+00  0.11368683772E-12  0.17120000000E+03  0.17120000000E+03 0.  0.
         13    1    1    2    0    0  0.41400811863E+02  0.10803477725E+03  0.67876812729E+03  0.68855771153E+03  0.10566000000E+00 0.  1.
        994    1    1    2    0    0  0.44730959125E+02 -0.32437520055E+02  0.29140203359E+02  0.18224061804E+03  0.17120000000E+03 0.  0.
        998    1    1    2    0    0 -0.86131770988E+02 -0.75597257193E+02  0.79209166563E+03  0.80040167043E+03  0.10000000000E+02 0.  1.
</event>
<event>
 5    1  0.1360042E-008  0.3845944E+03  0.7957747E-01  0.3431394E+00
         13   -1    0    0    0    0  0.00000000000E+00  0.00000000000E+00  0.14999999963E+04  0.15000000000E+04  0.10566000000E+00 0. -1.
        994   -1    0    0    0    0 -0.00000000000E+00 -0.00000000000E+00  0.11368683772E-12  0.17120000000E+03  0.17120000000E+03 0.  0.
         13    1    1    2    0    0  0.15901616290E+01  0.12494672406E+02  0.42195988763E+02  0.44035872698E+02  0.10566000000E+00 0. -1.
        994    1    1    2    0    0 -0.27114717851E+01 -0.12218604555E+02  0.23476296955E+01  0.17167293829E+03  0.17120000000E+03 0.  0.
        998    1    1    2    0    0  0.11213101561E+01 -0.27606785082E+00  0.14554563778E+04  0.14554911890E+04  0.10000000000E+02 0. -1.
</event>
<event>
 5    1  0.1360042E-008  0.3809056E+03  0.7957747E-01  0.3447225E+00
         13   -1    0    0    0    0  0.00000000000E+00  0.00000000000E+00  0.14999999963E+04  0.15000000000E+04  0.10566000000E+00 0.  1.
        994   -1    0    0    0    0 -0.00000000000E+00 -0.00000000000E+00  0.11368683772E-12  0.17120000000E+03  0.17120000000E+03 0.  0.
         13    1    1    2    0    0 -0.30379713961E+01 -0.19228107589E+02  0.50129071813E+02  0.53776243794E+02  0.10566000000E+00 0.  1.
        994    1    1    2    0    0  0.15345542429E+02  0.10892866019E+02  0.48578982218E+01  0.17229967898E+03  0.17120000000E+03 0.  0.
        998    1    1    2    0    0 -0.12307571033E+02  0.83352415694E+01  0.14450130262E+04  0.14451240772E+04  0.10000000000E+02 0.  1.
</event>
<event>
 5    1  0.1360042E-008  0.3818665E+03  0.7957747E-01  0.3443071E+00
         13   -1    0    0    0    0  0.00000000000E+00  0.00000000000E+00  0.14999999963E+04  0.15000000000E+04  0.10566000000E+00 0.  1.
        994   -1    0    0    0    0 -0.00000000000E+00 -0.00000000000E+00  0.11368683772E-12  0.17120000000E+03  0.17120000000E+03 0.  0.
         13    1    1    2    0    0 -0.86426090652E+02 -0.25231494222E+02  0.40185098900E+03  0.41181346016E+03  0.10566000000E+00 0.  1.
        994    1    1    2    0    0 -0.26371992931E+02 -0.21602705298E+02  0.21608056776E+02  0.17589345356E+03  0.17120000000E+03 0.  0.
        998    1    1    2    0    0  0.11279808358E+03  0.46834199520E+02  0.10765409505E+04  0.10834930863E+04  0.10000000000E+02 0.  1.
</event>
<event>
 5    1  0.1360042E-008  0.3852707E+03  0.7957747E-01  0.3428525E+00
         13   -1    0    0    0    0  0.00000000000E+00  0.00000000000E+00  0.14999999963E+04  0.15000000000E+04  0.10566000000E+00 0. -1.
        994   -1    0    0    0    0 -0.00000000000E+00 -0.00000000000E+00  0.11368683772E-12  0.17120000000E+03  0.17120000000E+03 0.  0.
         13    1    1    2    0    0  0.15651231556E+02  0.65636785035E+01  0.97931112724E+02  0.99390929808E+02  0.10566000000E+00 0. -1.
        994    1    1    2    0    0 -0.13001079398E+02  0.67825295839E+01  0.22026366614E+01  0.17184097992E+03  0.17120000000E+03 0.  0.
        998    1    1    2    0    0 -0.26501521579E+01 -0.13346208087E+02  0.13998662469E+04  0.13999680903E+04  0.10000000000E+02 0. -1.
</event>
<event>
 5    1  0.1360042E-008  0.3772844E+03  0.7957747E-01  0.3463069E+00
         13   -1    0    0    0    0  0.00000000000E+00  0.00000000000E+00  0.14999999963E+04  0.15000000000E+04  0.10566000000E+00 0.  1.
        994   -1    0    0    0    0 -0.00000000000E+00 -0.00000000000E+00  0.11368683772E-12  0.17120000000E+03  0.17120000000E+03 0.  0.
         13    1    1    2    0    0 -0.14267291386E+02  0.33078103141E+02  0.10714654028E+03  0.11304029710E+03  0.10566000000E+00 0.  1.
        994    1    1    2    0    0  0.13990089577E+02 -0.35748235563E+02  0.10497413845E+02  0.17576488457E+03  0.17120000000E+03 0.  0.
        998    1    1    2    0    0  0.27720180919E+00  0.26701324216E+01  0.13823560422E+04  0.13823948183E+04  0.10000000000E+02 0.  1.
</event>
<event>
 5    1  0.1360042E-008  0.3713079E+03  0.7957747E-01  0.3489902E+00
         13   -1    0    0    0    0  0.00000000000E+00  0.00000000000E+00  0.14999999963E+04  0.15000000000E+04  0.10566000000E+00 0. -1.
        994   -1    0    0    0    0 -0.00000000000E+00 -0.00000000000E+00  0.11368683772E-12  0.17120000000E+03  0.17120000000E+03 0.  0.
         13    1    1    2    0    0 -0.15759354709E+02  0.92361487646E+01  0.86405382787E+01  0.20207270242E+02  0.10566000000E+00 0. -1.
        994    1    1    2    0    0  0.25007584146E+02 -0.28382023817E+02  0.16674293612E+02  0.17612038669E+03  0.17120000000E+03 0.  0.
        998    1    1    2    0    0 -0.92482294378E+01  0.19145875053E+02  0.14746851644E+04  0.14748723431E+04  0.10000000000E+02 0. -1.
</event>
<event>
 5    1  0.1360042E-008  0.3838727E+03  0.7957747E-01  0.3434467E+00
         13   -1    0    0    0    0  0.00000000000E+00  0.00000000000E+00  0.14999999963E+04  0.15000000000E+04  0.10566000000E+00 0. -1.
        994   -1    0    0    0    0 -0.00000000000E+00 -0.00000000000E+00  0.11368683772E-12  0.17120000000E+03  0.17120000000E+03 0.  0.
         13    1    1    2    0    0  0.15755968156E+02 -0.67213371300E+01  0.68861660416E+02  0.70960315280E+02  0.10566000000E+00 0. -1.
        994    1    1    2    0    0 -0.64434263051E+01 -0.23368630915E+01  0.23459127989E+01  0.17135320825E+03  0.17120000000E+03 0.  0.
        998    1    1    2    0    0 -0.93125418504E+01  0.90582002214E+01  0.14287924231E+04  0.14288864765E+04  0.10000000000E+02 0. -1.
</event>
<event>
 5    1  0.1360042E-008  0.3710123E+03  0.7957747E-01  0.3491252E+00
         13   -1    0    0    0    0  0.00000000000E+00  0.00000000000E+00  0.14999999963E+04  0.15000000000E+04  0.10566000000E+00 0.  1.
        994   -1    0    0    0    0 -0.00000000000E+00 -0.00000000000E+00  0.11368683772E-12  0.17120000000E+03  0.17120000000E+03 0.  0.
         13    1    1    2    0    0  0.14428602875E+02  0.20629078902E+01  0.80035321271E+01  0.16628525503E+02  0.10566000000E+00 0.  1.
        994    1    1    2    0    0 -0.19054732075E+02 -0.13204336468E+02  0.10594916830E+02  0.17308705780E+03  0.17120000000E+03 0.  0.
        998    1    1    2    0    0  0.46261292009E+01  0.11141428578E+02  0.14814015473E+04  0.14814844167E+04  0.10000000000E+02 0.  1.
</event>
<event>
 5    1  0.1360042E-008  0.4002342E+03  0.7957747E-01  0.3367525E+00
         13   -1    0    0    0    0  0.00000000000E+00  0.00000000000E+00  0.14999999963E+04  0.15000000000E+04  0.10566000000E+00 0. -1.
        994   -1    0    0    0    0 -0.00000000000E+00 -0.00000000000E+00  0.11368683772E-12  0.17120000000E+03  0.17120000000E+03 0.  0.
         13    1    1    2    0    0  0.23770767821E+02 -0.54367084668E+02  0.53272017072E+02  0.79741759857E+02  0.10566000000E+00 0. -1.
        994    1    1    2    0    0 -0.25821779513E+02  0.40126398234E+02  0.36892838626E+02  0.18151422444E+03  0.17120000000E+03 0.  0.
        998    1    1    2    0    0  0.20510116922E+01  0.14240686434E+02  0.14098351406E+04  0.14099440157E+04  0.10000000000E+02 0. -1.
</event>
<event>
 5    1  0.1360042E-008  0.4159356E+03  0.7957747E-01  0.3308209E+00
         13   -1    0    0    0    0  0.00000000000E+00  0.00000000000E+00  0.14999999963E+04  0.15000000000E+04  0.10566000000E+00 0. -1.
        994   -1    0    0    0    0 -0.00000000000E+00 -0.00000000000E+00  0.11368683772E-12  0.17120000000E+03  0.17120000000E+03 0.  0.
         13    1    1    2    0    0 -0.24639002422E+02  0.32987854259E+02  0.77937891705E+01  0.41905050801E+02  0.10566000000E+00 0. -1.
        994    1    1    2    0    0  0.21689451879E+02 -0.29306286196E+02  0.43258921324E+02  0.18030547692E+03  0.17120000000E+03 0.  0.
        998    1    1    2    0    0  0.29495505438E+01 -0.36815680630E+01  0.14489472858E+04  0.14489894723E+04  0.10000000000E+02 0. -1.
</event>
<event>
 5    1  0.1360042E-008  0.3772568E+03  0.7957747E-01  0.3463191E+00
         13   -1    0    0    0    0  0.00000000000E+00  0.00000000000E+00  0.14999999963E+04  0.15000000000E+04  0.10566000000E+00 0.  1.
        994   -1    0    0    0    0 -0.00000000000E+00 -0.00000000000E+00  0.11368683772E-12  0.17120000000E+03  0.17120000000E+03 0.  0.
         13    1    1    2    0    0  0.18597050649E+02  0.36197596252E+01  0.32519634297E+02  0.37636295400E+02  0.10566000000E+00 0.  1.
        994    1    1    2    0    0  0.15489345618E+02 -0.13777006561E+02  0.69753929257E+01  0.17259148833E+03  0.17120000000E+03 0.  0.
        998    1    1    2    0    0 -0.34086396267E+02  0.10157246936E+02  0.14605049691E+04  0.14609722163E+04  0.10000000000E+02 0.  1.
</event>
<event>
 5    1  0.1360042E-008  0.3743795E+03  0.7957747E-01  0.3476002E+00
         13   -1    0    0    0    0  0.00000000000E+00  0.00000000000E+00  0.14999999963E+04  0.15000000000E+04  0.10566000000E+00 0. -1.
        994   -1    0    0    0    0 -0.00000000000E+00 -0.00000000000E+00  0.11368683772E-12  0.17120000000E+03  0.17120000000E+03 0.  0.
         13    1    1    2    0    0  0.51659278164E+02  0.48517519060E+02  0.16613201833E+03  0.18061696863E+03  0.10566000000E+00 0. -1.
        994    1    1    2    0    0 -0.54608850997E+02 -0.43009403751E+02  0.30634428265E+02  0.18729613881E+03  0.17120000000E+03 0.  0.
        998    1    1    2    0    0  0.29495728332E+01 -0.55081153086E+01  0.13032335497E+04  0.13032868926E+04  0.10000000000E+02 0. -1.
</event>
<event>
 5    1  0.1360042E-008  0.3838791E+03  0.7957747E-01  0.3434440E+00
         13   -1    0    0    0    0  0.00000000000E+00  0.00000000000E+00  0.14999999963E+04  0.15000000000E+04  0.10566000000E+00 0.  1.
        994   -1    0    0    0    0 -0.00000000000E+00 -0.00000000000E+00  0.11368683772E-12  0.17120000000E+03  0.17120000000E+03 0.  0.
         13    1    1    2    0    0 -0.10510432482E+02 -0.20947880606E+00  0.25463316409E+02  0.27548225331E+02  0.10566000000E+00 0.  1.
        994    1    1    2    0    0 -0.25955350844E+01  0.96510038963E+01  0.25174197683E+01  0.17150992998E+03  0.17120000000E+03 0.  0.
        998    1    1    2    0    0  0.13105967566E+02 -0.94415250902E+01  0.14720192601E+04  0.14721418447E+04  0.10000000000E+02 0.  1.
</event>
<event>
 5    1  0.1360042E-008  0.3726622E+03  0.7957747E-01  0.3483745E+00
         13   -1    0    0    0    0  0.00000000000E+00  0.00000000000E+00  0.14999999963E+04  0.15000000000E+04  0.10566000000E+00 0.  1.
        994   -1    0    0    0    0 -0.00000000000E+00 -0.00000000000E+00  0.11368683772E-12  0.17120000000E+03  0.17120000000E+03 0.  0.
         13    1    1    2    0    0  0.22352013430E+01 -0.17634943960E+02  0.16486802730E+02  0.24244859286E+02  0.10566000000E+00 0.  1.
        994    1    1    2    0    0 -0.26768238331E+01  0.15818969640E+02  0.87665950774E+01  0.17217345433E+03  0.17120000000E+03 0.  0.
        998    1    1    2    0    0  0.44162249012E+00  0.18159743198E+01  0.14747465985E+04  0.14747816864E+04  0.10000000000E+02 0.  1.
</event>
<event>
 5    1  0.1360042E-008  0.3820093E+03  0.7957747E-01  0.3442456E+00
         13   -1    0    0    0    0  0.00000000000E+00  0.00000000000E+00  0.14999999963E+04  0.15000000000E+04  0.10566000000E+00 0. -1.
        994   -1    0    0    0    0 -0.00000000000E+00 -0.00000000000E+00  0.11368683772E-12  0.17120000000E+03  0.17120000000E+03 0.  0.
         13    1    1    2    0    0  0.65204724101E+01  0.11276002953E+02  0.25964147063E+02  0.29048457786E+02  0.10566000000E+00 0. -1.
        994    1    1    2    0    0 -0.14917817874E+02 -0.20809710351E+01  0.38760707692E+01  0.17190501928E+03  0.17120000000E+03 0.  0.
        998    1    1    2    0    0  0.83973454637E+01 -0.91950319176E+01  0.14701597784E+04  0.14702465229E+04  0.10000000000E+02 0. -1.
</event>
<event>
 5    1  0.1360042E-008  0.3771429E+03  0.7957747E-01  0.3463694E+00
         13   -1    0    0    0    0  0.00000000000E+00  0.00000000000E+00  0.14999999963E+04  0.15000000000E+04  0.10566000000E+00 0. -1.
        994   -1    0    0    0    0 -0.00000000000E+00 -0.00000000000E+00  0.11368683772E-12  0.17120000000E+03  0.17120000000E+03 0.  0.
         13    1    1    2    0    0  0.45254560679E+02 -0.10404504331E+02  0.17097010371E+03  0.17716381261E+03  0.10566000000E+00 0. -1.
        994    1    1    2    0    0 -0.44514582998E+02  0.12440800003E+02  0.12826261330E+02  0.17779278552E+03  0.17120000000E+03 0.  0.
        998    1    1    2    0    0 -0.73997768186E+00 -0.20362956711E+01  0.13162036312E+04  0.13162434019E+04  0.10000000000E+02 0. -1.
</event>
<event>
 5    1  0.1360042E-008  0.3798483E+03  0.7957747E-01  0.3451819E+00
         13   -1    0    0    0    0  0.00000000000E+00  0.00000000000E+00  0.14999999963E+04  0.15000000000E+04  0.10566000000E+00 0.  1.
        994   -1    0    0    0    0 -0.00000000000E+00 -0.00000000000E+00  0.11368683772E-12  0.17120000000E+03  0.17120000000E+03 0.  0.
         13    1    1    2    0    0  0.38570299677E+01  0.10574348020E+02  0.13356457643E+02  0.17467101678E+02  0.10566000000E+00 0.  1.
        994    1    1    2    0    0  0.34179736492E+01 -0.52942874426E+01  0.43425993490E+01  0.17137097243E+03  0.17120000000E+03 0.  0.
        998    1    1    2    0    0 -0.72750036169E+01 -0.52800605772E+01  0.14823009393E+04  0.14823619259E+04  0.10000000000E+02 0.  1.
</event>
<event>
 5    1  0.1360042E-008  0.3688313E+03  0.7957747E-01  0.3501280E+00
         13   -1    0    0    0    0  0.00000000000E+00  0.00000000000E+00  0.14999999963E+04  0.15000000000E+04  0.10566000000E+00 0. -1.
        994   -1    0    0    0    0 -0.00000000000E+00 -0.00000000000E+00  0.11368683772E-12  0.17120000000E+03  0.17120000000E+03 0.  0.
         13    1    1    2    0    0  0.22555455814E+02 -0.15301319183E+02  0.40760197803E+02  0.49033497169E+02  0.10566000000E+00 0. -1.
        994    1    1    2    0    0  0.54204255662E+02 -0.20428871595E+02  0.21622186259E+02  0.18202307289E+03  0.17120000000E+03 0.  0.
        998    1    1    2    0    0 -0.76759711476E+02  0.35730190778E+02  0.14376176122E+04  0.14401434299E+04  0.10000000000E+02 0. -1.
</event>
<event>
 5    1  0.1360042E-008  0.3847436E+03  0.7957747E-01  0.3430761E+00
         13   -1    0    0    0    0  0.00000000000E+00  0.00000000000E+00  0.14999999963E+04  0.15000000000E+04  0.10566000000E+00 0.  1.
        994   -1    0    0    0    0 -0.00000000000E+00 -0.00000000000E+00  0.11368683772E-12  0.17120000000E+03  0.17120000000E+03 0.  0.
         13    1    1    2    0    0 -0.17180106148E+02 -0.86659541487E+01  0.10395376165E+03  0.10571967903E+03  0.10566000000E+00 0.  1.
        994    1    1    2    0    0  0.15767172188E+02 -0.46601930470E+00  0.25769044904E+01  0.17194447165E+03  0.17120000000E+03 0.  0.
        998    1    1    2    0    0  0.14129339595E+01  0.91319734534E+01  0.13934693301E+04  0.13935358493E+04  0.10000000000E+02 0.  1.
</event>
<event>
 5    1  0.1360042E-008  0.3822293E+03  0.7957747E-01  0.3441509E+00
         13   -1    0    0    0    0  0.00000000000E+00  0.00000000000E+00  0.14999999963E+04  0.15000000000E+04  0.10566000000E+00 0. -1.
        994   -1    0    0    0    0 -0.00000000000E+00 -0.00000000000E+00  0.11368683772E-12  0.17120000000E+03  0.17120000000E+03 0.  0.
         13    1    1    2    0    0  0.29135778843E+01 -0.32891915121E+02  0.19274429489E+03  0.19555240063E+03  0.10566000000E+00 0. -1.
        994    1    1    2    0    0 -0.13622832526E+01  0.11158158854E+02  0.34314556152E+01  0.17160295805E+03  0.17120000000E+03 0.  0.
        998    1    1    2    0    0 -0.15512946317E+01  0.21733756267E+02  0.13038242458E+04  0.13040446413E+04  0.10000000000E+02 0. -1.
</event>
<event>
 5    1  0.1360042E-008  0.3759660E+03  0.7957747E-01  0.3468914E+00
         13   -1    0    0    0    0  0.00000000000E+00  0.00000000000E+00  0.14999999963E+04  0.15000000000E+04  0.10566000000E+00 0.  1.
        994   -1    0    0    0    0 -0.00000000000E+00 -0.00000000000E+00  0.11368683772E-12  0.17120000000E+03  0.17120000000E+03 0.  0.
         13    1    1    2    0    0  0.64333005323E+01  0.22181622122E+02  0.41751139027E+02  0.47713525229E+02  0.10566000000E+00 0.  1.
        994    1    1    2    0    0 -0.10932211223E+02 -0.39161603902E+01  0.66405347532E+01  0.17172182813E+03  0.17120000000E+03 0.  0.
        998    1    1    2    0    0  0.44989106903E+01 -0.18265461732E+02  0.14516083225E+04  0.14517646466E+04  0.10000000000E+02 0.  1.
</event>
<event>
 5    1  0.1360042E-008  0.3737874E+03  0.7957747E-01  0.3478664E+00
         13   -1    0    0    0    0  0.00000000000E+00  0.00000000000E+00  0.14999999963E+04  0.15000000000E+04  0.10566000000E+00 0.  1.
        994   -1    0    0    0    0 -0.00000000000E+00 -0.00000000000E+00  0.11368683772E-12  0.17120000000E+03  0.17120000000E+03 0.  0.
         13    1    1    2    0    0  0.62224828705E+02  0.45468323086E+02  0.21371506404E+03  0.22718590950E+03  0.10566000000E+00 0.  1.
        994    1    1    2    0    0 -0.58224076644E+02 -0.17708591059E+02  0.26196360095E+02  0.18357376332E+03  0.17120000000E+03 0.  0.
        998    1    1    2    0    0 -0.40007520601E+01 -0.27759732027E+02  0.12600885721E+04  0.12604403272E+04  0.10000000000E+02 0.  1.
</event>
<event>
 5    1  0.1360042E-008  0.3825400E+03  0.7957747E-01  0.3440173E+00
         13   -1    0    0    0    0  0.00000000000E+00  0.00000000000E+00  0.14999999963E+04  0.15000000000E+04  0.10566000000E+00 0.  1.
        994   -1    0    0    0    0 -0.00000000000E+00 -0.00000000000E+00  0.11368683772E-12  0.17120000000E+03  0.17120000000E+03 0.  0.
         13    1    1    2    0    0  0.20915050682E+02  0.20595525341E+02  0.17108319492E+03  0.17358308028E+03  0.10566000000E+00 0.  1.
        994    1    1    2    0    0 -0.30641235699E+01  0.11668558299E+01  0.28920957839E+01  0.17125581632E+03  0.17120000000E+03 0.  0.
        998    1    1    2    0    0 -0.17850927112E+02 -0.21762381171E+02  0.13260247056E+04  0.13263611034E+04  0.10000000000E+02 0.  1.
</event>
<event>
 5    1  0.1360042E-008  0.3781984E+03  0.7957747E-01  0.3459041E+00
         13   -1    0    0    0    0  0.00000000000E+00  0.00000000000E+00  0.14999999963E+04  0.15000000000E+04  0.10566000000E+00 0. -1.
        994   -1    0    0    0    0 -0.00000000000E+00 -0.00000000000E+00  0.11368683772E-12  0.17120000000E+03  0.17120000000E+03 0.  0.
         13    1    1    2    0    0 -0.29850091697E+02 -0.27395720513E+02  0.46566261225E+02  0.61725046175E+02  0.10566000000E+00 0. -1.
        994    1    1    2    0    0  0.30362472535E+02  0.23410131457E+02  0.20650997424E+02  0.17665168464E+03  0.17120000000E+03 0.  0.
        998    1    1    2    0    0 -0.51238083761E+00  0.39855890561E+01  0.14327827376E+04  0.14328232692E+04  0.10000000000E+02 0. -1.
</event>
<event>
 5    1  0.1360042E-008  0.3810025E+03  0.7957747E-01  0.3446805E+00
         13   -1    0    0    0    0  0.00000000000E+00  0.00000000000E+00  0.14999999963E+04  0.15000000000E+04  0.10566000000E+00 0.  1.
        994   -1    0    0    0    0 -0.00000000000E+00 -0.00000000000E+00  0.11368683772E-12  0.17120000000E+03  0.17120000000E+03 0.  0.
         13    1    1    2    0    0  0.26272437871E+02 -0.83128904416E+01  0.98523225227E+02  0.10230436067E+03  0.10566000000E+00 0.  1.
        994    1    1    2    0    0 -0.23563730034E+02  0.11265646072E+02  0.59041681669E+01  0.17328145705E+03  0.17120000000E+03 0.  0.
        998    1    1    2    0    0 -0.27087078374E+01 -0.29527556309E+01  0.13955726029E+04  0.13956141823E+04  0.10000000000E+02 0.  1.
</event>
<event>
 5    1  0.1360042E-008  0.3760992E+03  0.7957747E-01  0.3468321E+00
         13   -1    0    0    0    0  0.00000000000E+00  0.00000000000E+00  0.14999999963E+04  0.15000000000E+04  0.10566000000E+00 0. -1.
        994   -1    0    0    0    0 -0.00000000000E+00 -0.00000000000E+00  0.11368683772E-12  0.17120000000E+03  0.17120000000E+03 0.  0.
         13    1    1    2    0    0 -0.79957161994E+01  0.15623335729E+02  0.22522304344E+02  0.28553203915E+02  0.10566000000E+00 0. -1.
        994    1    1    2    0    0  0.22344368029E+01 -0.14104013070E+02  0.68062533872E+01  0.17192929063E+03  0.17120000000E+03 0.  0.
        998    1    1    2    0    0  0.57612793965E+01 -0.15193226588E+01  0.14706714385E+04  0.14707175055E+04  0.10000000000E+02 0. -1.
</event>
<event>
 5    1  0.1360042E-008  0.3858087E+03  0.7957747E-01  0.3426250E+00
         13   -1    0    0    0    0  0.00000000000E+00  0.00000000000E+00  0.14999999963E+04  0.15000000000E+04  0.10566000000E+00 0.  1.
        994   -1    0    0    0    0 -0.00000000000E+00 -0.00000000000E+00  0.11368683772E-12  0.17120000000E+03  0.17120000000E+03 0.  0.
         13    1    1    2    0    0  0.10266952370E+02 -0.11383354197E+00  0.40887360796E+02  0.42156976954E+02  0.10566000000E+00 0.  1.
        994    1    1    2    0    0 -0.16701740681E+02 -0.37232934795E+01  0.21901803908E+01  0.17206698680E+03  0.17120000000E+03 0.  0.
        998    1    1    2    0    0  0.64347883119E+01  0.38371270215E+01  0.14569224551E+04  0.14569760362E+04  0.10000000000E+02 0.  1.
</event>
<event>
 5    1  0.1360042E-008  0.3720314E+03  0.7957747E-01  0.3486607E+00
         13   -1    0    0    0    0  0.00000000000E+00  0.00000000000E+00  0.14999999963E+04  0.15000000000E+04  0.10566000000E+00 0. -1.
        994   -1    0    0    0    0 -0.00000000000E+00 -0.00000000000E+00  0.11368683772E-12  0.17120000000E+03  0.17120000000E+03 0.  0.
         13    1    1    2    0    0  0.22804575317E+02 -0.72661553036E+01  0.30399172423E+02  0.38690651537E+02  0.10566000000E+00 0. -1.
        994    1    1    2    0    0 -0.30527959188E+02  0.42796362746E+01  0.11480925349E+02  0.17433164723E+03  0.17120000000E+03 0.  0.
        998    1    1    2    0    0  0.77233838707E+01  0.29865190291E+01  0.14581198985E+04  0.14581777012E+04  0.10000000000E+02 0. -1.
</event>
<event>
 5    1  0.1360042E-008  0.3780550E+03  0.7957747E-01  0.3459671E+00
         13   -1    0    0    0    0  0.00000000000E+00  0.00000000000E+00  0.14999999963E+04  0.15000000000E+04  0.10566000000E+00 0.  1.
        994   -1    0    0    0    0 -0.00000000000E+00 -0.00000000000E+00  0.11368683772E-12  0.17120000000E+03  0.17120000000E+03 0.  0.
         13    1    1    2    0    0 -0.47960507823E+02 -0.22284517811E+02  0.29143048094E+03  0.29619005120E+03  0.10566000000E+00 0.  1.
        994    1    1    2    0    0  0.23298813444E+02  0.17241186122E+01  0.69567632636E+01  0.17292670080E+03  0.17120000000E+03 0.  0.
        998    1    1    2    0    0  0.24661694379E+02  0.20560399198E+02  0.12016127521E+04  0.12020832480E+04  0.10000000000E+02 0.  1.
</event>
<event>
 5    1  0.1360042E-008  0.3776712E+03  0.7957747E-01  0.3461362E+00
         13   -1    0    0    0    0  0.00000000000E+00  0.00000000000E+00  0.14999999963E+04  0.15000000000E+04  0.10566000000E+00 0. -1.
        994   -1    0    0    0    0 -0.00000000000E+00 -0.00000000000E+00  0.11368683772E-12  0.17120000000E+03  0.17120000000E+03 0.  0.
         13    1    1    2    0    0 -0.40278477555E+01 -0.14750879368E+02  0.19803517586E+02  0.25020041417E+02  0.10566000000E+00 0. -1.
        994    1    1    2    0    0  0.79353127771E-01  0.97953390142E+01  0.56366702999E+01  0.17157262898E+03  0.17120000000E+03 0.  0.
        998    1    1    2    0    0  0.39484946277E+01  0.49555403542E+01  0.14745598084E+04  0.14746073296E+04  0.10000000000E+02 0. -1.
</event>
<event>
 5    1  0.1360042E-008  0.3711060E+03  0.7957747E-01  0.3490823E+00
         13   -1    0    0    0    0  0.00000000000E+00  0.00000000000E+00  0.14999999963E+04  0.15000000000E+04  0.10566000000E+00 0. -1.
        994   -1    0    0    0    0 -0.00000000000E+00 -0.00000000000E+00  0.11368683772E-12  0.17120000000E+03  0.17120000000E+03 0.  0.
         13    1    1    2    0    0 -0.31572257482E+02  0.17614758820E+02  0.70387312752E+02  0.79129464368E+02  0.10566000000E+00 0. -1.
        994    1    1    2    0    0  0.27769403006E+02 -0.11875375184E+02  0.11840513861E+02  0.17424638317E+03  0.17120000000E+03 0.  0.
        998    1    1    2    0    0  0.38028544753E+01 -0.57393836364E+01  0.14177721697E+04  0.14178241525E+04  0.10000000000E+02 0. -1.
</event>
<event>
 5    1  0.1360042E-008  0.3841592E+03  0.7957747E-01  0.3433246E+00
         13   -1    0    0    0    0  0.00000000000E+00  0.00000000000E+00  0.14999999963E+04  0.15000000000E+04  0.10566000000E+00 0. -1.
        994   -1    0    0    0    0 -0.00000000000E+00 -0.00000000000E+00  0.11368683772E-12  0.17120000000E+03  0.17120000000E+03 0.  0.
         13    1    1    2    0    0 -0.10655562200E+02  0.16017856403E+02  0.96340535998E+02  0.98242672856E+02  0.10566000000E+00 0. -1.
        994    1    1    2    0    0  0.68410185344E+01  0.15010589166E+01  0.22099445521E+01  0.17135745262E+03  0.17120000000E+03 0.  0.
        998    1    1    2    0    0  0.38145436656E+01 -0.17518915319E+02  0.14014495157E+04  0.14015998745E+04  0.10000000000E+02 0. -1.
</event>
<event>
 5    1  0.1360042E-008  0.3860704E+03  0.7957747E-01  0.3425145E+00
         13   -1    0    0    0    0  0.00000000000E+00  0.00000000000E+00  0.14999999963E+04  0.15000000000E+04  0.10566000000E+00 0. -1.
        994   -1    0    0    0    0 -0.00000000000E+00 -0.00000000000E+00  0.11368683772E-12  0.17120000000E+03  0.17120000000E+03 0.  0.
         13    1    1    2    0    0  0.92921747164E+01  0.82966313261E+01  0.71785756749E+02  0.72858662069E+02  0.10566000000E+00 0. -1.
        994    1    1    2    0    0 -0.14140116364E+01 -0.10064697871E+02  0.14382422716E+01  0.17150745206E+03  0.17120000000E+03 0.  0.
        998    1    1    2    0    0 -0.78781630799E+01  0.17680665451E+01  0.14267759973E+04  0.14268338859E+04  0.10000000000E+02 0. -1.
</event>
<event>
 5    1  0.1360042E-008  0.3822685E+03  0.7957747E-01  0.3441340E+00
         13   -1    0    0    0    0  0.00000000000E+00  0.00000000000E+00  0.14999999963E+04  0.15000000000E+04  0.10566000000E+00 0. -1.
        994   -1    0    0    0    0 -0.00000000000E+00 -0.00000000000E+00  0.11368683772E-12  0.17120000000E+03  0.17120000000E+03 0.  0.
         13    1    1    2    0    0  0.92621940582E+00 -0.10858992254E+02  0.19089327992E+02  0.21981565058E+02  0.10566000000E+00 0. -1.
        994    1    1    2    0    0  0.60526438812E+01  0.51065204322E+00  0.31148124019E+01  0.17133603626E+03  0.17120000000E+03 0.  0.
        998    1    1    2    0    0 -0.69788632870E+01  0.10348340211E+02  0.14777958559E+04  0.14778823987E+04  0.10000000000E+02 0. -1.
</event>
<event>
 5    1  0.1360042E-008  0.3855292E+03  0.7957747E-01  0.3427431E+00
         13   -1    0    0    0    0  0.00000000000E+00  0.00000000000E+00  0.14999999963E+04  0.15000000000E+04  0.10566000000E+00 0.  1.
        994   -1    0    0    0    0 -0.00000000000E+00 -0.00000000000E+00  0.11368683772E-12  0.17120000000E+03  0.17120000000E+03 0.  0.
         13    1    1    2    0    0 -0.10088703975E+02 -0.21117277856E+01  0.40287515948E+02  0.41585291239E+02  0.10566000000E+00 0.  1.
        994    1    1    2    0    0  0.19375930978E+01 -0.47663008221E+01  0.14545298264E+01  0.17128347132E+03  0.17120000000E+03 0.  0.
        998    1    1    2    0    0  0.81511108773E+01  0.68780286077E+01  0.14582579505E+04  0.14583312374E+04  0.10000000000E+02 0.  1.
</event>
<event>
 5    1  0.1360042E-008  0.3814618E+03  0.7957747E-01  0.3444818E+00
         13   -1    0    0    0    0  0.00000000000E+00  0.00000000000E+00  0.14999999963E+04  0.15000000000E+04  0.10566000000E+00 0.  1.
        994   -1    0    0    0    0 -0.00000000000E+00 -0.00000000000E+00  0.11368683772E-12  0.17120000000E+03  0.17120000000E+03 0.  0.
         13    1    1    2    0    0 -0.31381988939E+02  0.35906630707E+01  0.12533834733E+03  0.12925724183E+03  0.10566000000E+00 0.  1.
        994    1    1    2    0    0  0.45964611870E+02  0.16148338914E+02  0.11333971259E+02  0.17835754343E+03  0.17120000000E+03 0.  0.
        998    1    1    2    0    0 -0.14582622931E+02 -0.19739001985E+02  0.13633276777E+04  0.13635852147E+04  0.10000000000E+02 0.  1.
</event>
<event>
 5    1  0.1360042E-008  0.3813047E+03  0.7957747E-01  0.3445497E+00
         13   -1    0    0    0    0  0.00000000000E+00  0.00000000000E+00  0.14999999963E+04  0.15000000000E+04  0.10566000000E+00 0. -1.
        994   -1    0    0    0    0 -0.00000000000E+00 -0.00000000000E+00  0.11368683772E-12  0.17120000000E+03  0.17120000000E+03 0.  0.
         13    1    1    2    0    0 -0.74921502164E+01  0.13785101587E+02  0.34104710963E+02  0.37540695445E+02  0.10566000000E+00 0. -1.
        994    1    1    2    0    0  0.30161839611E+01 -0.10427260448E+02  0.38682656081E+01  0.17158737892E+03  0.17120000000E+03 0.  0.
        998    1    1    2    0    0  0.44759662553E+01 -0.33578411383E+01  0.14620270197E+04  0.14620719256E+04  0.10000000000E+02 0. -1.
</event>
<event>
 5    1  0.1360042E-008  0.3838968E+03  0.7957747E-01  0.3434364E+00
         13   -1    0    0    0    0  0.00000000000E+00  0.00000000000E+00  0.14999999963E+04  0.15000000000E+04  0.10566000000E+00 0.  1.
        994   -1    0    0    0    0 -0.00000000000E+00 -0.00000000000E+00  0.11368683772E-12  0.17120000000E+03  0.17120000000E+03 0.  0.
         13    1    1    2    0    0  0.16135810241E+02  0.12302297707E+02  0.86385305136E+02  0.88736368015E+02  0.10566000000E+00 0.  1.
        994    1    1    2    0    0 -0.22364261743E+02 -0.14076917658E+02  0.44870060862E+01  0.17328558231E+03  0.17120000000E+03 0.  0.
        998    1    1    2    0    0  0.62284515026E+01  0.17746199518E+01  0.14091276851E+04  0.14091780497E+04  0.10000000000E+02 0.  1.
</event>
<event>
 5    1  0.1360042E-008  0.3941264E+03  0.7957747E-01  0.3391865E+00
         13   -1    0    0    0    0  0.00000000000E+00  0.00000000000E+00  0.14999999963E+04  0.15000000000E+04  0.10566000000E+00 0. -1.
        994   -1    0    0    0    0 -0.00000000000E+00 -0.00000000000E+00  0.11368683772E-12  0.17120000000E+03  0.17120000000E+03 0.  0.
         13    1    1    2    0    0  0.44286319056E+02 -0.69398029982E+01  0.30017404268E+02  0.53949000401E+02  0.10566000000E+00 0. -1.
        994    1    1    2    0    0 -0.57188164593E+02  0.24970229080E+02  0.39358663606E+02  0.18642033932E+03  0.17120000000E+03 0.  0.
        998    1    1    2    0    0  0.12901845537E+02 -0.18030426082E+02  0.14306239284E+04  0.14308306603E+04  0.10000000000E+02 0. -1.
</event>
<event>
 5    1  0.1360042E-008  0.3793086E+03  0.7957747E-01  0.3454174E+00
         13   -1    0    0    0    0  0.00000000000E+00  0.00000000000E+00  0.14999999963E+04  0.15000000000E+04  0.10566000000E+00 0.  1.
        994   -1    0    0    0    0 -0.00000000000E+00 -0.00000000000E+00  0.11368683772E-12  0.17120000000E+03  0.17120000000E+03 0.  0.
         13    1    1    2    0    0  0.21005907289E+02  0.25956118429E+02  0.12498487469E+03  0.12936845941E+03  0.10566000000E+00 0.  1.
        994    1    1    2    0    0 -0.17106852190E+02 -0.78372739627E+01  0.56697771841E+01  0.17232426883E+03  0.17120000000E+03 0.  0.
        998    1    1    2    0    0 -0.38990550986E+01 -0.18118844466E+02  0.13693453444E+04  0.13695072718E+04  0.10000000000E+02 0.  1.
</event>
<event>
 5    1  0.1360042E-008  0.3845631E+03  0.7957747E-01  0.3431527E+00
         13   -1    0    0    0    0  0.00000000000E+00  0.00000000000E+00  0.14999999963E+04  0.15000000000E+04  0.10566000000E+00 0.  1.
        994   -1    0    0    0    0 -0.00000000000E+00 -0.00000000000E+00  0.11368683772E-12  0.17120000000E+03  0.17120000000E+03 0.  0.
         13    1    1    2    0    0 -0.98636578417E+01  0.26035791235E+01  0.29528759647E+02  0.31241465725E+02  0.10566000000E+00 0.  1.
        994    1    1    2    0    0 -0.63064047479E+01  0.70047364019E+01  0.21398300887E+01  0.17147260990E+03  0.17120000000E+03 0.  0.
        998    1    1    2    0    0  0.16170062590E+02 -0.96083155255E+01  0.14683314065E+04  0.14684859244E+04  0.10000000000E+02 0.  1.
</event>
<event>
 5    1  0.1360042E-008  0.3931810E+03  0.7957747E-01  0.3395700E+00
         13   -1    0    0    0    0  0.00000000000E+00  0.00000000000E+00  0.14999999963E+04  0.15000000000E+04  0.10566000000E+00 0.  1.
        994   -1    0    0    0    0 -0.00000000000E+00 -0.00000000000E+00  0.11368683772E-12  0.17120000000E+03  0.17120000000E+03 0.  0.
         13    1    1    2    0    0 -0.12786778758E+03  0.10377628257E+03  0.40429022697E+03  0.43654356795E+03  0.10566000000E+00 0.  1.
        994    1    1    2    0    0  0.10392425018E+03 -0.11966871059E+03  0.12730922541E+03  0.26577796926E+03  0.17120000000E+03 0.  0.
        998    1    1    2    0    0  0.23943537402E+02  0.15892428016E+02  0.96840054390E+03  0.96887846280E+03  0.10000000000E+02 0. -1.
</event>
<event>
 5    1  0.1360042E-008  0.4460305E+03  0.7957747E-01  0.3205988E+00
         13   -1    0    0    0    0  0.00000000000E+00  0.00000000000E+00  0.14999999963E+04  0.15000000000E+04  0.10566000000E+00 0.  1.
        994   -1    0    0    0    0 -0.00000000000E+00 -0.00000000000E+00  0.11368683772E-12  0.17120000000E+03  0.17120000000E+03 0.  0.
         13    1    1    2    0    0  0.64343474651E+01 -0.28482222864E+02 -0.16036851905E+02  0.33314105566E+02  0.10566000000E+00 0.  1.
        994    1    1    2    0    0 -0.45242762000E+01  0.26858589679E+02  0.62444381269E+02  0.18425686871E+03  0.17120000000E+03 0.  0.
        998    1    1    2    0    0 -0.19100712651E+01  0.16236331847E+01  0.14535924669E+04  0.14536290257E+04  0.10000000000E+02 0.  1.
</event>
<event>
 5    1  0.1360042E-008  0.3688837E+03  0.7957747E-01  0.3501037E+00
         13   -1    0    0    0    0  0.00000000000E+00  0.00000000000E+00  0.14999999963E+04  0.15000000000E+04  0.10566000000E+00 0. -1.
        994   -1    0    0    0    0 -0.00000000000E+00 -0.00000000000E+00  0.11368683772E-12  0.17120000000E+03  0.17120000000E+03 0.  0.
         13    1    1    2    0    0 -0.10527486134E+03 -0.23393215397E+02  0.63303094464E+03  0.64215124931E+03  0.10566000000E+00 0. -1.
        994    1    1    2    0    0  0.76836107832E+02 -0.53309604621E+02  0.41457917533E+02  0.19943394981E+03  0.17120000000E+03 0.  0.
        998    1    1    2    0    0  0.28438753512E+02  0.76702820017E+02  0.82551113411E+03  0.82961480088E+03  0.10000000000E+02 0.  1.
</event>
<event>
 5    1  0.1360042E-008  0.3819739E+03  0.7957747E-01  0.3442609E+00
         13   -1    0    0    0    0  0.00000000000E+00  0.00000000000E+00  0.14999999963E+04  0.15000000000E+04  0.10566000000E+00 0. -1.
        994   -1    0    0    0    0 -0.00000000000E+00 -0.00000000000E+00  0.11368683772E-12  0.17120000000E+03  0.17120000000E+03 0.  0.
         13    1    1    2    0    0  0.26429659087E+02  0.21297328331E+02  0.16396520869E+03  0.16744164326E+03  0.10566000000E+00 0. -1.
        994    1    1    2    0    0 -0.33597342321E+02 -0.13348042421E+02  0.74929452799E+01  0.17513576413E+03  0.17120000000E+03 0.  0.
        998    1    1    2    0    0  0.71676832342E+01 -0.79492859101E+01  0.13285418423E+04  0.13286225926E+04  0.10000000000E+02 0. -1.
</event>
<event>
 5    1  0.1360042E-008  0.3684849E+03  0.7957747E-01  0.3502883E+00
         13   -1    0    0    0    0  0.00000000000E+00  0.00000000000E+00  0.14999999963E+04  0.15000000000E+04  0.10566000000E+00 0. -1.
        994   -1    0    0    0    0 -0.00000000000E+00 -0.00000000000E+00  0.11368683772E-12  0.17120000000E+03  0.17120000000E+03 0.  0.
         13    1    1    2    0    0 -0.34127729965E+02 -0.21964537608E+01  0.51927171753E+02  0.62176914462E+02  0.10566000000E+00 0. -1.
        994    1    1    2    0    0  0.35464109938E+02 -0.15184508589E+01  0.14534334281E+02  0.17544428078E+03  0.17120000000E+03 0.  0.
        998    1    1    2    0    0 -0.13363799732E+01  0.37149046196E+01  0.14335384902E+04  0.14335788048E+04  0.10000000000E+02 0. -1.
</event>
<event>
 5    1  0.1360042E-008  0.3753710E+03  0.7957747E-01  0.3471565E+00
         13   -1    0    0    0    0  0.00000000000E+00  0.00000000000E+00  0.14999999963E+04  0.15000000000E+04  0.10566000000E+00 0. -1.
        994   -1    0    0    0    0 -0.00000000000E+00 -0.00000000000E+00  0.11368683772E-12  0.17120000000E+03  0.17120000000E+03 0.  0.
         13    1    1    2    0    0  0.11668639104E+03  0.37188637072E+01  0.65365007913E+03  0.66399396151E+03  0.10566000000E+00 0. -1.
        994    1    1    2    0    0 -0.41630485744E+02  0.10310247805E+02  0.20390296788E+02  0.17766429792E+03  0.17120000000E+03 0.  0.
        998    1    1    2    0    0 -0.75055905298E+02 -0.14029111512E+02  0.82595962036E+03  0.82954174057E+03  0.10000000000E+02 0. -1.
</event>
<event>
 5    1  0.1360042E-008  0.3853006E+03  0.7957747E-01  0.3428398E+00
         13   -1    0    0    0    0  0.00000000000E+00  0.00000000000E+00  0.14999999963E+04  0.15000000000E+04  0.10566000000E+00 0.  1.
        994   -1    0    0    0    0 -0.00000000000E+00 -0.00000000000E+00  0.11368683772E-12  0.17120000000E+03  0.17120000000E+03 0.  0.
         13    1    1    2    0    0  0.16829748983E+02 -0.71073323713E+00  0.99800593748E+02  0.10121222885E+03  0.10566000000E+00 0.  1.
        994    1    1    2    0    0 -0.63097320169E+01 -0.15897953186E+01  0.16201097719E+01  0.17133127246E+03  0.17120000000E+03 0.  0.
        998    1    1    2    0    0 -0.10520016966E+02  0.23005285557E+01  0.13985792928E+04  0.13986564987E+04  0.10000000000E+02 0.  1.
</event>
<event>
 5    1  0.1360042E-008  0.3850025E+03  0.7957747E-01  0.3429662E+00
         13   -1    0    0    0    0  0.00000000000E+00  0.00000000000E+00  0.14999999963E+04  0.15000000000E+04  0.10566000000E+00 0.  1.
        994   -1    0    0    0    0 -0.00000000000E+00 -0.00000000000E+00  0.11368683772E-12  0.17120000000E+03  0.17120000000E+03 0.  0.
         13    1    1    2    0    0  0.63410611856E+01 -0.93965180404E+01  0.38961850241E+02  0.40577586750E+02  0.10566000000E+00 0.  1.
        994    1    1    2    0    0 -0.22740371629E+01  0.98715054966E+01  0.19664595923E+01  0.17151071345E+03  0.17120000000E+03 0.  0.
        998    1    1    2    0    0 -0.40670240227E+01 -0.47498745625E+00  0.14590716864E+04  0.14591116998E+04  0.10000000000E+02 0.  0.
</event>
<event>
 5    1  0.1360042E-008  0.3834959E+03  0.7957747E-01  0.3436076E+00
         13   -1    0    0    0    0  0.00000000000E+00  0.00000000000E+00  0.14999999963E+04  0.15000000000E+04  0.10566000000E+00 0.  1.
        994   -1    0    0    0    0 -0.00000000000E+00 -0.00000000000E+00  0.11368683772E-12  0.17120000000E+03  0.17120000000E+03 0.  0.
         13    1    1    2    0    0 -0.11435982119E+02  0.94551970056E+01  0.47315931387E+02  0.49588213968E+02  0.10566000000E+00 0.  1.
        994    1    1    2    0    0  0.41849549370E+01  0.19057830605E+01  0.24486307707E+01  0.17127925049E+03  0.17120000000E+03 0.  0.
        998    1    1    2    0    0  0.72510271822E+01 -0.11360980066E+02  0.14502354341E+04  0.14503325355E+04  0.10000000000E+02 0.  1.
</event>
<event>
 5    1  0.1360042E-008  0.3842000E+03  0.7957747E-01  0.3433072E+00
         13   -1    0    0    0    0  0.00000000000E+00  0.00000000000E+00  0.14999999963E+04  0.15000000000E+04  0.10566000000E+00 0.  1.
        994   -1    0    0    0    0 -0.00000000000E+00 -0.00000000000E+00  0.11368683772E-12  0.17120000000E+03  0.17120000000E+03 0.  0.
         13    1    1    2    0    0  0.98743623826E+01 -0.12756974100E+02  0.58283000953E+02  0.60474480443E+02  0.10566000000E+00 0.  1.
        994    1    1    2    0    0 -0.12995500461E+02  0.24685528688E+02  0.45981539056E+01  0.17351899429E+03  0.17120000000E+03 0.  0.
        998    1    1    2    0    0  0.31211380781E+01 -0.11928554588E+02  0.14371188414E+04  0.14372065253E+04  0.10000000000E+02 0.  1.
</event>
<event>
 5    1  0.1360042E-008  0.3724194E+03  0.7957747E-01  0.3484845E+00
         13   -1    0    0    0    0  0.00000000000E+00  0.00000000000E+00  0.14999999963E+04  0.15000000000E+04  0.10566000000E+00 0. -1.
        994   -1    0    0    0    0 -0.00000000000E+00 -0.00000000000E+00  0.11368683772E-12  0.17120000000E+03  0.17120000000E+03 0.  0.
         13    1    1    2    0    0 -0.33172613623E+02 -0.63842815010E+02  0.24137720160E+03  0.25187157826E+03  0.10566000000E+00 0. -1.
        994    1    1    2    0    0  0.21169123119E+02  0.89733417189E+02  0.37745509053E+02  0.19807670582E+03  0.17120000000E+03 0.  0.
        998    1    1    2    0    0  0.12003490504E+02 -0.25890602178E+02  0.12208772856E+04  0.12212517159E+04  0.10000000000E+02 0. -1.
</event>
<event>
 5    1  0.1360042E-008  0.3832605E+03  0.7957747E-01  0.3437083E+00
         13   -1    0    0    0    0  0.00000000000E+00  0.00000000000E+00  0.14999999963E+04  0.15000000000E+04  0.10566000000E+00 0.  1.
        994   -1    0    0    0    0 -0.00000000000E+00 -0.00000000000E+00  0.11368683772E-12  0.17120000000E+03  0.17120000000E+03 0.  0.
         13    1    1    2    0    0  0.73096897576E+01 -0.18554752008E+02  0.79746741551E+02  0.82202581093E+02  0.10566000000E+00 0.  1.
        994    1    1    2    0    0 -0.50352629969E+01  0.98601582626E+01  0.29017620061E+01  0.17158215763E+03  0.17120000000E+03 0.  0.
        998    1    1    2    0    0 -0.22744267607E+01  0.86945937452E+01  0.14173514927E+04  0.14174152613E+04  0.10000000000E+02 0.  1.
</event>
<event>
 5    1  0.1360042E-008  0.3814286E+03  0.7957747E-01  0.3444961E+00
         13   -1    0    0    0    0  0.00000000000E+00  0.00000000000E+00  0.14999999963E+04  0.15000000000E+04  0.10566000000E+00 0. -1.
        994   -1    0    0    0    0 -0.00000000000E+00 -0.00000000000E+00  0.11368683772E-12  0.17120000000E+03  0.17120000000E+03 0.  0.
         13    1    1    2    0    0 -0.39539925971E+02 -0.27775809967E+02  0.26870783634E+03  0.27301797347E+03  0.10566000000E+00 0. -1.
        994    1    1    2    0    0  0.34253307541E+02  0.45423814539E+02  0.14258472598E+02  0.18096783152E+03  0.17120000000E+03 0.  0.
        998    1    1    2    0    0  0.52866184303E+01 -0.17648004572E+02  0.12170336873E+04  0.12172141950E+04  0.10000000000E+02 0.  0.
</event>
<event>
 5    1  0.1360042E-008  0.2991713E+03  0.7957747E-01  0.3901953E+00
         13   -1    0    0    0    0  0.00000000000E+00  0.00000000000E+00  0.14999999963E+04  0.15000000000E+04  0.10566000000E+00 0. -1.
        994   -1    0    0    0    0 -0.00000000000E+00 -0.00000000000E+00  0.11368683772E-12  0.17120000000E+03  0.17120000000E+03 0.  0.
         13    1    1    2    0    0  0.19134062812E+03  0.75131743951E+02  0.57195116664E+03  0.60776982741E+03  0.10566000000E+00 0. -1.
        994    1    1    2    0    0 -0.19988363900E+03 -0.75133464513E+02  0.20927094127E+03  0.34453196294E+03  0.17120000000E+03 0.  0.
        998    1    1    2    0    0  0.85430108836E+01  0.17205627283E-02  0.71877788836E+03  0.71889820965E+03  0.10000000000E+02 0.  0.
</event>
<event>
 5    1  0.1360042E-008  0.3732215E+03  0.7957747E-01  0.3481215E+00
         13   -1    0    0    0    0  0.00000000000E+00  0.00000000000E+00  0.14999999963E+04  0.15000000000E+04  0.10566000000E+00 0. -1.
        994   -1    0    0    0    0 -0.00000000000E+00 -0.00000000000E+00  0.11368683772E-12  0.17120000000E+03  0.17120000000E+03 0.  0.
         13    1    1    2    0    0 -0.26869987950E+02 -0.19934878566E+02  0.38638703953E+02  0.51111214455E+02  0.10566000000E+00 0. -1.
        994    1    1    2    0    0  0.24870806164E+02  0.16752378281E+02  0.15838473633E+02  0.17452649204E+03  0.17120000000E+03 0.  0.
        998    1    1    2    0    0  0.19991817860E+01  0.31825002850E+01  0.14455228187E+04  0.14455622935E+04  0.10000000000E+02 0. -1.
</event>
<event>
 5    1  0.1360042E-008  0.3743604E+03  0.7957747E-01  0.3476088E+00
         13   -1    0    0    0    0  0.00000000000E+00  0.00000000000E+00  0.14999999963E+04  0.15000000000E+04  0.10566000000E+00 0. -1.
        994   -1    0    0    0    0 -0.00000000000E+00 -0.00000000000E+00  0.11368683772E-12  0.17120000000E+03  0.17120000000E+03 0.  0.
         13    1    1    2    0    0  0.47148485287E+02  0.27468203755E+02  0.22441031207E+03  0.23094908791E+03  0.10566000000E+00 0. -1.
        994    1    1    2    0    0 -0.76151837811E+00 -0.43766249597E+02  0.13562863631E+02  0.17722713050E+03  0.17120000000E+03 0.  0.
        998    1    1    2    0    0 -0.46386966909E+02  0.16298045842E+02  0.12620268206E+04  0.12630237816E+04  0.10000000000E+02 0. -1.
</event>
<event>
 5    1  0.1360042E-008  0.3801632E+03  0.7957747E-01  0.3450448E+00
         13   -1    0    0    0    0  0.00000000000E+00  0.00000000000E+00  0.14999999963E+04  0.15000000000E+04  0.10566000000E+00 0.  1.
        994   -1    0    0    0    0 -0.00000000000E+00 -0.00000000000E+00  0.11368683772E-12  0.17120000000E+03  0.17120000000E+03 0.  0.
         13    1    1    2    0    0  0.50378624630E+01  0.89709280709E+01  0.11315851316E+02  0.15294353981E+02  0.10566000000E+00 0.  1.
        994    1    1    2    0    0 -0.10161093217E+02 -0.16357314064E+01  0.44047812996E+01  0.17156563039E+03  0.17120000000E+03 0.  0.
        998    1    1    2    0    0  0.51232307536E+01 -0.73351966645E+01  0.14842793637E+04  0.14843400156E+04  0.10000000000E+02 0.  1.
</event>
<event>
 5    1  0.1360042E-008  0.3850562E+03  0.7957747E-01  0.3429434E+00
         13   -1    0    0    0    0  0.00000000000E+00  0.00000000000E+00  0.14999999963E+04  0.15000000000E+04  0.10566000000E+00 0.  1.
        994   -1    0    0    0    0 -0.00000000000E+00 -0.00000000000E+00  0.11368683772E-12  0.17120000000E+03  0.17120000000E+03 0.  0.
         13    1    1    2    0    0 -0.43167106309E+01 -0.96392695466E+01  0.35454963532E+02  0.36994798434E+02  0.10566000000E+00 0.  1.
        994    1    1    2    0    0  0.57147222482E+01  0.10782353019E+00  0.17096488442E+01  0.17130391874E+03  0.17120000000E+03 0.  0.
        998    1    1    2    0    0 -0.13980116173E+01  0.95314460164E+01  0.14628353839E+04  0.14629012828E+04  0.10000000000E+02 0.  1.
</event>
<event>
 5    1  0.1360042E-008  0.3719193E+03  0.7957747E-01  0.3487116E+00
         13   -1    0    0    0    0  0.00000000000E+00  0.00000000000E+00  0.14999999963E+04  0.15000000000E+04  0.10566000000E+00 0.  1.
        994   -1    0    0    0    0 -0.00000000000E+00 -0.00000000000E+00  0.11368683772E-12  0.17120000000E+03  0.17120000000E+03 0.  0.
         13    1    1    2    0    0  0.73338791839E+02  0.23704955910E+02  0.37180400505E+03  0.37970874714E+03  0.10566000000E+00 0.  1.
        994    1    1    2    0    0  0.12485051901E+02  0.46202659598E+01  0.12581304138E+02  0.17217709660E+03  0.17120000000E+03 0.  0.
        998    1    1    2    0    0 -0.85823843740E+02 -0.28325221870E+02  0.11156146871E+04  0.11193141563E+04  0.10000000000E+02 0.  1.
</event>
<event>
 5    1  0.1389216E-008  0.3855071E+03  0.7957747E-01  0.3427524E+00
         13   -1    0    0    0    0  0.00000000000E+00  0.00000000000E+00  0.14999999963E+04  0.15000000000E+04  0.10566000000E+00 0.  1.
        994   -1    0    0    0    0 -0.00000000000E+00 -0.00000000000E+00  0.11368683772E-12  0.17120000000E+03  0.17120000000E+03 0.  0.
         13    1    1    2    0    0 -0.16250327015E+02 -0.22920959723E+01  0.91844358271E+02  0.93299111155E+02  0.10566000000E+00 0.  1.
        994    1    1    2    0    0  0.18741152811E+02  0.19821174930E+01  0.25455128289E+01  0.17225295131E+03  0.17120000000E+03 0.  0.
        998    1    1    2    0    0 -0.24908257957E+01  0.30997847931E+00  0.14056101252E+04  0.14056479375E+04  0.10000000000E+02 0.  1.
</event>
<event>
 5    1  0.1360042E-008  0.3823408E+03  0.7957747E-01  0.3441029E+00
         13   -1    0    0    0    0  0.00000000000E+00  0.00000000000E+00  0.14999999963E+04  0.15000000000E+04  0.10566000000E+00 0.  1.
        994   -1    0    0    0    0 -0.00000000000E+00 -0.00000000000E+00  0.11368683772E-12  0.17120000000E+03  0.17120000000E+03 0.  0.
         13    1    1    2    0    0 -0.84502143220E+01  0.68558671859E+01  0.18797115752E+02  0.21719847182E+02  0.10566000000E+00 0.  1.
        994    1    1    2    0    0  0.50302492308E+01 -0.79884078930E+01  0.32518599539E+01  0.17149091131E+03  0.17120000000E+03 0.  0.
        998    1    1    2    0    0  0.34199650913E+01  0.11325407071E+01  0.14779510206E+04  0.14779892415E+04  0.10000000000E+02 0.  1.
</event>
<event>
 5    1  0.1360042E-008  0.3720009E+03  0.7957747E-01  0.3486745E+00
         13   -1    0    0    0    0  0.00000000000E+00  0.00000000000E+00  0.14999999963E+04  0.15000000000E+04  0.10566000000E+00 0. -1.
        994   -1    0    0    0    0 -0.00000000000E+00 -0.00000000000E+00  0.11368683772E-12  0.17120000000E+03  0.17120000000E+03 0.  0.
         13    1    1    2    0    0 -0.12994677048E+03  0.67826077176E+02  0.67388717357E+03  0.68964517962E+03  0.10566000000E+00 0. -1.
        994    1    1    2    0    0  0.12157372950E+03 -0.82002213264E+02  0.86118319511E+02  0.24130963437E+03  0.17120000000E+03 0.  0.
        998    1    1    2    0    0  0.83730409732E+01  0.14176136087E+02  0.73999450319E+03  0.74024518601E+03  0.10000000000E+02 0. -1.
</event>
<event>
 5    1  0.1360042E-008  0.3836322E+03  0.7957747E-01  0.3435494E+00
         13   -1    0    0    0    0  0.00000000000E+00  0.00000000000E+00  0.14999999963E+04  0.15000000000E+04  0.10566000000E+00 0. -1.
        994   -1    0    0    0    0 -0.00000000000E+00 -0.00000000000E+00  0.11368683772E-12  0.17120000000E+03  0.17120000000E+03 0.  0.
         13    1    1    2    0    0  0.25649581282E+01  0.15774806336E+02  0.57954387042E+02  0.60117764983E+02  0.10566000000E+00 0. -1.
        994    1    1    2    0    0 -0.65587663308E+01  0.17919960946E+01  0.24634900453E+01  0.17135266980E+03  0.17120000000E+03 0.  0.
        998    1    1    2    0    0  0.39938082026E+01 -0.17566802431E+02  0.14395821192E+04  0.14397295652E+04  0.10000000000E+02 0. -1.
</event>
<event>
 5    1  0.1360042E-008  0.3818436E+03  0.7957747E-01  0.3443170E+00
         13   -1    0    0    0    0  0.00000000000E+00  0.00000000000E+00  0.14999999963E+04  0.15000000000E+04  0.10566000000E+00 0.  1.
        994   -1    0    0    0    0 -0.00000000000E+00 -0.00000000000E+00  0.11368683772E-12  0.17120000000E+03  0.17120000000E+03 0.  0.
         13    1    1    2    0    0  0.76675187630E+01 -0.15729824317E+02  0.45205021290E+02  0.48473944866E+02  0.10566000000E+00 0.  1.
        994    1    1    2    0    0 -0.86134422315E+01  0.17481709127E+02  0.44683525682E+01  0.17236359162E+03  0.17120000000E+03 0.  0.
        998    1    1    2    0    0  0.94592346851E+00 -0.17518848098E+01  0.14503266224E+04  0.14503624635E+04  0.10000000000E+02 0.  1.
</event>
<event>
 5    1  0.1762592E-008  0.3860882E+03  0.7957747E-01  0.3425070E+00
         13   -1    0    0    0    0  0.00000000000E+00  0.00000000000E+00  0.14999999963E+04  0.15000000000E+04  0.10566000000E+00 0.  1.
        994   -1    0    0    0    0 -0.00000000000E+00 -0.00000000000E+00  0.11368683772E-12  0.17120000000E+03  0.17120000000E+03 0.  0.
         13    1    1    2    0    0 -0.95959105656E+01  0.40440211353E+01  0.50681580960E+02  0.51740404126E+02  0.10566000000E+00 0.  1.
        994    1    1    2    0    0  0.50971648488E+01 -0.35892746545E+01  0.12182045401E+01  0.17131779827E+03  0.17120000000E+03 0.  0.
        998    1    1    2    0    0  0.44987457168E+01 -0.45474648085E+00  0.14481002108E+04  0.14481417976E+04  0.10000000000E+02 0.  1.
</event>
<event>
 5    1  0.1450425E-008  0.3838549E+03  0.7957747E-01  0.3434543E+00
         13   -1    0    0    0    0  0.00000000000E+00  0.00000000000E+00  0.14999999963E+04  0.15000000000E+04  0.10566000000E+00 0. -1.
        994   -1    0    0    0    0 -0.00000000000E+00 -0.00000000000E+00  0.11368683772E-12  0.17120000000E+03  0.17120000000E+03 0.  0.
         13    1    1    2    0    0 -0.82911631418E+01  0.82169095396E+01  0.29937276456E+02  0.32132735244E+02  0.10566000000E+00 0. -1.
        994    1    1    2    0    0  0.92962008447E+01 -0.68139047963E+01  0.26383797676E+01  0.17160783693E+03  0.17120000000E+03 0.  0.
        998    1    1    2    0    0 -0.10050377028E+01 -0.14030047433E+01  0.14674243401E+04  0.14674594278E+04  0.10000000000E+02 0. -1.
</event>
<event>
 5    1  0.1568249E-008  0.3860091E+03  0.7957747E-01  0.3425404E+00
         13   -1    0    0    0    0  0.00000000000E+00  0.00000000000E+00  0.14999999963E+04  0.15000000000E+04  0.10566000000E+00 0. -1.
        994   -1    0    0    0    0 -0.00000000000E+00 -0.00000000000E+00  0.11368683772E-12  0.17120000000E+03  0.17120000000E+03 0.  0.
         13    1    1    2    0    0 -0.42586865151E+01 -0.10156296907E+02  0.53842583202E+02  0.54957453612E+02  0.10566000000E+00 0. -1.
        994    1    1    2    0    0  0.56047331682E+01  0.70475367597E+01  0.13957652843E+01  0.17144231966E+03  0.17120000000E+03 0.  0.
        998    1    1    2    0    0 -0.13460466531E+01  0.31087601474E+01  0.14447616478E+04  0.14448002267E+04  0.10000000000E+02 0. -1.
</event>
<event>
 5    1  0.1360042E-008  0.3828027E+03  0.7957747E-01  0.3439045E+00
         13   -1    0    0    0    0  0.00000000000E+00  0.00000000000E+00  0.14999999963E+04  0.15000000000E+04  0.10566000000E+00 0.  1.
        994   -1    0    0    0    0 -0.00000000000E+00 -0.00000000000E+00  0.11368683772E-12  0.17120000000E+03  0.17120000000E+03 0.  0.
         13    1    1    2    0    0  0.21170586599E+01  0.19972062842E+02  0.68909020525E+02  0.71776246107E+02  0.10566000000E+00 0.  1.
        994    1    1    2    0    0  0.13442054878E+01 -0.24928548151E+02  0.47920755743E+01  0.17307698689E+03  0.17120000000E+03 0.  0.
        998    1    1    2    0    0 -0.34612641477E+01  0.49564853094E+01  0.14262989002E+04  0.14263467670E+04  0.10000000000E+02 0.  1.
</event>
<event>
 5    1  0.1360042E-008  0.3746148E+03  0.7957747E-01  0.3474947E+00
         13   -1    0    0    0    0  0.00000000000E+00  0.00000000000E+00  0.14999999963E+04  0.15000000000E+04  0.10566000000E+00 0. -1.
        994   -1    0    0    0    0 -0.00000000000E+00 -0.00000000000E+00  0.11368683772E-12  0.17120000000E+03  0.17120000000E+03 0.  0.
         13    1    1    2    0    0 -0.12020074248E+03 -0.10979878516E+03  0.69312795986E+03  0.71199042944E+03  0.10566000000E+00 0. -1.
        994    1    1    2    0    0  0.12514621753E+03  0.13234307410E+03  0.12978515428E+03  0.28165562536E+03  0.17120000000E+03 0.  0.
        998    1    1    2    0    0 -0.49454750507E+01 -0.22544288948E+02  0.67708688215E+03  0.67755394520E+03  0.10000000000E+02 0. -1.
</event>
<event>
 5    1  0.1360042E-008  0.3800241E+03  0.7957747E-01  0.3451054E+00
         13   -1    0    0    0    0  0.00000000000E+00  0.00000000000E+00  0.14999999963E+04  0.15000000000E+04  0.10566000000E+00 0.  1.
        994   -1    0    0    0    0 -0.00000000000E+00 -0.00000000000E+00  0.11368683772E-12  0.17120000000E+03  0.17120000000E+03 0.  0.
         13    1    1    2    0    0 -0.13902954050E+02 -0.15860636164E+02  0.53780215023E+02  0.57768283710E+02  0.10566000000E+00 0.  1.
        994    1    1    2    0    0 -0.21162462923E+01  0.11509987880E+02  0.45789168528E+01  0.17166060934E+03  0.17120000000E+03 0.  0.
        998    1    1    2    0    0  0.16019200342E+02  0.43506482845E+01  0.14416408644E+04  0.14417711069E+04  0.10000000000E+02 0.  1.
</event>
<event>
 5    1  0.1360042E-008  0.3837361E+03  0.7957747E-01  0.3435050E+00
         13   -1    0    0    0    0  0.00000000000E+00  0.00000000000E+00  0.14999999963E+04  0.15000000000E+04  0.10566000000E+00 0. -1.
        994   -1    0    0    0    0 -0.00000000000E+00 -0.00000000000E+00  0.11368683772E-12  0.17120000000E+03  0.17120000000E+03 0.  0.
         13    1    1    2    0    0  0.11708201412E+02 -0.45644107578E+01  0.34870494526E+02  0.37065865407E+02  0.10566000000E+00 0. -1.
        994    1    1    2    0    0 -0.39090090929E+01  0.26482663419E+01  0.23325749934E+01  0.17128098135E+03  0.17120000000E+03 0.  0.
        998    1    1    2    0    0 -0.77991923195E+01  0.19161444159E+01  0.14627969268E+04  0.14628531532E+04  0.10000000000E+02 0. -1.
</event>
<event>
 5    1  0.1360042E-008  0.3792595E+03  0.7957747E-01  0.3454389E+00
         13   -1    0    0    0    0  0.00000000000E+00  0.00000000000E+00  0.14999999963E+04  0.15000000000E+04  0.10566000000E+00 0. -1.
        994   -1    0    0    0    0 -0.00000000000E+00 -0.00000000000E+00  0.11368683772E-12  0.17120000000E+03  0.17120000000E+03 0.  0.
         13    1    1    2    0    0  0.20814946330E+02 -0.83153781590E+00  0.45475248632E+02  0.50019624629E+02  0.10566000000E+00 0. -1.
        994    1    1    2    0    0 -0.19536827202E+02  0.82839564444E+00  0.57898190370E+01  0.17241037051E+03  0.17120000000E+03 0.  0.
        998    1    1    2    0    0 -0.12781191281E+01  0.31421714556E-02  0.14487349286E+04  0.14487700049E+04  0.10000000000E+02 0.  0.
</event>
<event>
 5    1  0.1360042E-008  0.3824365E+03  0.7957747E-01  0.3440617E+00
         13   -1    0    0    0    0  0.00000000000E+00  0.00000000000E+00  0.14999999963E+04  0.15000000000E+04  0.10566000000E+00 0.  1.
        994   -1    0    0    0    0 -0.00000000000E+00 -0.00000000000E+00  0.11368683772E-12  0.17120000000E+03  0.17120000000E+03 0.  0.
         13    1    1    2    0    0 -0.40608957671E+01  0.17949777356E+02  0.58443292957E+02  0.61272465572E+02  0.10566000000E+00 0.  1.
        994    1    1    2    0    0 -0.12479347796E+02 -0.10860261767E+02  0.38163335240E+01  0.17203977391E+03  0.17120000000E+03 0.  0.
        998    1    1    2    0    0  0.16540243563E+02 -0.70895155889E+01  0.14377403698E+04  0.14378877605E+04  0.10000000000E+02 0.  1.
</event>
<event>
 5    1  0.1360042E-008  0.3790325E+03  0.7957747E-01  0.3455382E+00
         13   -1    0    0    0    0  0.00000000000E+00  0.00000000000E+00  0.14999999963E+04  0.15000000000E+04  0.10566000000E+00 0.  1.
        994   -1    0    0    0    0 -0.00000000000E+00 -0.00000000000E+00  0.11368683772E-12  0.17120000000E+03  0.17120000000E+03 0.  0.
         13    1    1    2    0    0 -0.37598736117E+02 -0.49303292989E+02  0.35496459981E+03  0.36033922620E+03  0.10566000000E+00 0.  1.
        994    1    1    2    0    0  0.52380905476E+02  0.26322271738E+02  0.16235132649E+02  0.18168555468E+03  0.17120000000E+03 0.  0.
        998    1    1    2    0    0 -0.14782169359E+02  0.22981021251E+02  0.11288002638E+04  0.11291752191E+04  0.10000000000E+02 0.  1.
</event>
<event>
 5    1  0.1360042E-008  0.3837032E+03  0.7957747E-01  0.3435191E+00
         13   -1    0    0    0    0  0.00000000000E+00  0.00000000000E+00  0.14999999963E+04  0.15000000000E+04  0.10566000000E+00 0. -1.
        994   -1    0    0    0    0 -0.00000000000E+00 -0.00000000000E+00  0.11368683772E-12  0.17120000000E+03  0.17120000000E+03 0.  0.
         13    1    1    2    0    0 -0.46909796338E+01  0.94391649842E+01  0.23323144214E+02  0.25594596023E+02  0.10566000000E+00 0. -1.
        994    1    1    2    0    0  0.36997627485E+01 -0.11111949308E+02  0.27284700808E+01  0.17162181741E+03  0.17120000000E+03 0.  0.
        998    1    1    2    0    0  0.99121688529E+00  0.16727843238E+01  0.14739483820E+04  0.14739835866E+04  0.10000000000E+02 0. -1.
</event>
<event>
 5    1  0.1360042E-008  0.3153580E+03  0.7957747E-01  0.3792132E+00
         13   -1    0    0    0    0  0.00000000000E+00  0.00000000000E+00  0.14999999963E+04  0.15000000000E+04  0.10566000000E+00 0.  1.
        994   -1    0    0    0    0 -0.00000000000E+00 -0.00000000000E+00  0.11368683772E-12  0.17120000000E+03  0.17120000000E+03 0.  0.
         13    1    1    2    0    0  0.14805340000E+03  0.19799598014E+03  0.64870208614E+03  0.69421655493E+03  0.10566000000E+00 0.  1.
        994    1    1    2    0    0 -0.11672641607E+03 -0.19216586934E+03  0.25772404443E+03  0.38247078402E+03  0.17120000000E+03 0.  0.
        998    1    1    2    0    0 -0.31326983936E+02 -0.58301108008E+01  0.59357386570E+03  0.59451266106E+03  0.10000000000E+02 0.  1.
</event>
<event>
 5    1  0.1360042E-008  0.3716906E+03  0.7957747E-01  0.3488157E+00
         13   -1    0    0    0    0  0.00000000000E+00  0.00000000000E+00  0.14999999963E+04  0.15000000000E+04  0.10566000000E+00 0.  1.
        994   -1    0    0    0    0 -0.00000000000E+00 -0.00000000000E+00  0.11368683772E-12  0.17120000000E+03  0.17120000000E+03 0.  0.
         13    1    1    2    0    0  0.35816101507E+02 -0.51216559689E+02  0.29393957810E+03  0.30051025914E+03  0.10566000000E+00 0.  1.
        994    1    1    2    0    0  0.98131864967E+01  0.85223597955E+01  0.89690068819E+01  0.17192676444E+03  0.17120000000E+03 0.  0.
        998    1    1    2    0    0 -0.45629288003E+02  0.42694199894E+02  0.11970914113E+04  0.11987629764E+04  0.10000000000E+02 0.  1.
</event>
<event>
 5    1  0.1360042E-008  0.3835036E+03  0.7957747E-01  0.3436043E+00
         13   -1    0    0    0    0  0.00000000000E+00  0.00000000000E+00  0.14999999963E+04  0.15000000000E+04  0.10566000000E+00 0.  1.
        994   -1    0    0    0    0 -0.00000000000E+00 -0.00000000000E+00  0.11368683772E-12  0.17120000000E+03  0.17120000000E+03 0.  0.
         13    1    1    2    0    0 -0.15649419171E+02  0.10209418163E+02  0.67533494515E+02  0.70070825491E+02  0.10566000000E+00 0.  1.
        994    1    1    2    0    0  0.26957235007E+02 -0.69011943447E+01  0.49379497376E+01  0.17351698001E+03  0.17120000000E+03 0.  0.
        998    1    1    2    0    0 -0.11307815836E+02 -0.33082238186E+01  0.14275285520E+04  0.14276121945E+04  0.10000000000E+02 0.  1.
</event>
<event>
 5    1  0.1360042E-008  0.3842855E+03  0.7957747E-01  0.3432708E+00
         13   -1    0    0    0    0  0.00000000000E+00  0.00000000000E+00  0.14999999963E+04  0.15000000000E+04  0.10566000000E+00 0.  1.
        994   -1    0    0    0    0 -0.00000000000E+00 -0.00000000000E+00  0.11368683772E-12  0.17120000000E+03  0.17120000000E+03 0.  0.
         13    1    1    2    0    0 -0.13685272862E+02  0.58152427577E+01  0.63863313911E+02  0.65571623203E+02  0.10566000000E+00 0.  1.
        994    1    1    2    0    0 -0.20321778241E+02 -0.11506246797E+02  0.37850407934E+01  0.17282689293E+03  0.17120000000E+03 0.  0.
        998    1    1    2    0    0  0.34007051103E+02  0.56910040390E+01  0.14323516416E+04  0.14328014839E+04  0.10000000000E+02 0.  1.
</event>
<event>
 5    1  0.1360042E-008  0.3743037E+03  0.7957747E-01  0.3476343E+00
         13   -1    0    0    0    0  0.00000000000E+00  0.00000000000E+00  0.14999999963E+04  0.15000000000E+04  0.10566000000E+00 0. -1.
        994   -1    0    0    0    0 -0.00000000000E+00 -0.00000000000E+00  0.11368683772E-12  0.17120000000E+03  0.17120000000E+03 0.  0.
         13    1    1    2    0    0 -0.30032652002E+02 -0.71567039167E+02  0.31827604142E+03  0.32760258086E+03  0.10566000000E+00 0. -1.
        994    1    1    2    0    0  0.32121253074E+02  0.77466355142E+02  0.31390595640E+02  0.19320357288E+03  0.17120000000E+03 0.  0.
        998    1    1    2    0    0 -0.20886010722E+01 -0.58993159756E+01  0.11503333592E+04  0.11503938463E+04  0.10000000000E+02 0. -1.
</event>
<event>
 5    1  0.1360042E-008  0.3856219E+03  0.7957747E-01  0.3427039E+00
         13   -1    0    0    0    0  0.00000000000E+00  0.00000000000E+00  0.14999999963E+04  0.15000000000E+04  0.10566000000E+00 0.  1.
        994   -1    0    0    0    0 -0.00000000000E+00 -0.00000000000E+00  0.11368683772E-12  0.17120000000E+03  0.17120000000E+03 0.  0.
         13    1    1    2    0    0 -0.10542512064E+02 -0.72834082866E+01  0.67603495640E+02  0.68807240779E+02  0.10566000000E+00 0.  1.
        994    1    1    2    0    0 -0.45220764152E+01  0.25778564479E+01  0.14106311804E+01  0.17128492169E+03  0.17120000000E+03 0.  0.
        998    1    1    2    0    0  0.15064588480E+02  0.47055518386E+01  0.14309858695E+04  0.14311078375E+04  0.10000000000E+02 0.  1.
</event>
<event>
 5    1  0.1360042E-008  0.3694054E+03  0.7957747E-01  0.3498628E+00
         13   -1    0    0    0    0  0.00000000000E+00  0.00000000000E+00  0.14999999963E+04  0.15000000000E+04  0.10566000000E+00 0. -1.
        994   -1    0    0    0    0 -0.00000000000E+00 -0.00000000000E+00  0.11368683772E-12  0.17120000000E+03  0.17120000000E+03 0.  0.
         13    1    1    2    0    0 -0.49002904820E+02 -0.33360994419E+02  0.14393423684E+03  0.15566411381E+03  0.10566000000E+00 0. -1.
        994    1    1    2    0    0  0.79886967078E+02  0.37794755537E+02  0.37150946121E+02  0.19621417852E+03  0.17120000000E+03 0.  0.
        998    1    1    2    0    0 -0.30884062257E+02 -0.44337611177E+01  0.13189148133E+04  0.13193217077E+04  0.10000000000E+02 0. -1.
</event>
<event>
 5    1  0.1360042E-008  0.3840637E+03  0.7957747E-01  0.3433653E+00
         13   -1    0    0    0    0  0.00000000000E+00  0.00000000000E+00  0.14999999963E+04  0.15000000000E+04  0.10566000000E+00 0. -1.
        994   -1    0    0    0    0 -0.00000000000E+00 -0.00000000000E+00  0.11368683772E-12  0.17120000000E+03  0.17120000000E+03 0.  0.
         13    1    1    2    0    0  0.41351156690E+01  0.11865386117E+02  0.36830672291E+02  0.38915243218E+02  0.10566000000E+00 0. -1.
        994    1    1    2    0    0 -0.18318010887E+01 -0.10496726856E+02  0.24703118790E+01  0.17154905774E+03  0.17120000000E+03 0.  0.
        998    1    1    2    0    0 -0.23033145802E+01 -0.13686592606E+01  0.14606990121E+04  0.14607356990E+04  0.10000000000E+02 0. -1.
</event>
<event>
 5    1  0.1360042E-008  0.3836511E+03  0.7957747E-01  0.3435413E+00
         13   -1    0    0    0    0  0.00000000000E+00  0.00000000000E+00  0.14999999963E+04  0.15000000000E+04  0.10566000000E+00 0. -1.
        994   -1    0    0    0    0 -0.00000000000E+00 -0.00000000000E+00  0.11368683772E-12  0.17120000000E+03  0.17120000000E+03 0.  0.
         13    1    1    2    0    0 -0.82149901105E+01  0.62108530413E+01  0.22350064412E+02  0.24608886632E+02  0.10566000000E+00 0. -1.
        994    1    1    2    0    0  0.73526310578E+01 -0.44635203126E+00  0.24805782075E+01  0.17137635100E+03  0.17120000000E+03 0.  0.
        998    1    1    2    0    0  0.86235905273E+00 -0.57645010100E+01  0.14751693537E+04  0.14752147624E+04  0.10000000000E+02 0. -1.
</event>
<event>
 5    1  0.1360042E-008  0.3805149E+03  0.7957747E-01  0.3448920E+00
         13   -1    0    0    0    0  0.00000000000E+00  0.00000000000E+00  0.14999999963E+04  0.15000000000E+04  0.10566000000E+00 0. -1.
        994   -1    0    0    0    0 -0.00000000000E+00 -0.00000000000E+00  0.11368683772E-12  0.17120000000E+03  0.17120000000E+03 0.  0.
         13    1    1    2    0    0 -0.17961514892E+02  0.97964836652E+01  0.53538343393E+02  0.57314505029E+02  0.10566000000E+00 0. -1.
        994    1    1    2    0    0  0.11335841159E+02  0.20999380962E+01  0.43171496992E+01  0.17164203686E+03  0.17120000000E+03 0.  0.
        998    1    1    2    0    0  0.66256737329E+01 -0.11896421761E+02  0.14421445032E+04  0.14422434581E+04  0.10000000000E+02 0. -1.
</event>
<event>
 5    1  0.1360042E-008  0.3694991E+03  0.7957747E-01  0.3498196E+00
         13   -1    0    0    0    0  0.00000000000E+00  0.00000000000E+00  0.14999999963E+04  0.15000000000E+04  0.10566000000E+00 0.  1.
        994   -1    0    0    0    0 -0.00000000000E+00 -0.00000000000E+00  0.11368683772E-12  0.17120000000E+03  0.17120000000E+03 0.  0.
         13    1    1    2    0    0 -0.88084217793E+02 -0.86679114798E+02  0.45255796598E+03  0.46912772472E+03  0.10566000000E+00 0.  1.
        994    1    1    2    0    0  0.73883481585E+02  0.11163271052E+03  0.76113376562E+02  0.23026792438E+03  0.17120000000E+03 0.  0.
        998    1    1    2    0    0  0.14200736208E+02 -0.24953595718E+02  0.97132865373E+03  0.97180435089E+03  0.10000000000E+02 0.  1.
</event>
<event>
 5    1  0.1360042E-008  0.3730714E+03  0.7957747E-01  0.3481893E+00
         13   -1    0    0    0    0  0.00000000000E+00  0.00000000000E+00  0.14999999963E+04  0.15000000000E+04  0.10566000000E+00 0. -1.
        994   -1    0    0    0    0 -0.00000000000E+00 -0.00000000000E+00  0.11368683772E-12  0.17120000000E+03  0.17120000000E+03 0.  0.
         13    1    1    2    0    0 -0.17578505298E+02  0.30272247292E+02  0.72019944323E+02  0.80076815302E+02  0.10566000000E+00 0. -1.
        994    1    1    2    0    0  0.21557123031E+02 -0.35494876375E+02  0.13596138874E+02  0.17668868327E+03  0.17120000000E+03 0.  0.
        998    1    1    2    0    0 -0.39786177327E+01  0.52226290829E+01  0.14143839131E+04  0.14144345014E+04  0.10000000000E+02 0. -1.
</event>
<event>
 5    1  0.1360042E-008  0.3834061E+03  0.7957747E-01  0.3436460E+00
         13   -1    0    0    0    0  0.00000000000E+00  0.00000000000E+00  0.14999999963E+04  0.15000000000E+04  0.10566000000E+00 0.  1.
        994   -1    0    0    0    0 -0.00000000000E+00 -0.00000000000E+00  0.11368683772E-12  0.17120000000E+03  0.17120000000E+03 0.  0.
         13    1    1    2    0    0  0.31738170893E+01  0.10526809420E+02  0.24258610237E+02  0.26634154129E+02  0.10566000000E+00 0.  1.
        994    1    1    2    0    0 -0.19644692634E+01 -0.55840799267E+01  0.25393973863E+01  0.17132113012E+03  0.17120000000E+03 0.  0.
        998    1    1    2    0    0 -0.12093478259E+01 -0.49427294936E+01  0.14732019887E+04  0.14732447157E+04  0.10000000000E+02 0.  1.
</event>
<event>
 5    1  0.1360042E-008  0.3814568E+03  0.7957747E-01  0.3444840E+00
         13   -1    0    0    0    0  0.00000000000E+00  0.00000000000E+00  0.14999999963E+04  0.15000000000E+04  0.10566000000E+00 0.  1.
        994   -1    0    0    0    0 -0.00000000000E+00 -0.00000000000E+00  0.11368683772E-12  0.17120000000E+03  0.17120000000E+03 0.  0.
         13    1    1    2    0    0 -0.14653056621E+02  0.70590200313E+01  0.38001217154E+02  0.41335765402E+02  0.10566000000E+00 0.  1.
        994    1    1    2    0    0  0.90109105961E+01 -0.68910232022E+00  0.36713215591E+01  0.17147766611E+03  0.17120000000E+03 0.  0.
        998    1    1    2    0    0  0.56421460249E+01 -0.63699177111E+01  0.14583274576E+04  0.14583865685E+04  0.10000000000E+02 0.  1.
</event>
<event>
 5    1  0.1360042E-008  0.3811451E+03  0.7957747E-01  0.3446188E+00
         13   -1    0    0    0    0  0.00000000000E+00  0.00000000000E+00  0.14999999963E+04  0.15000000000E+04  0.10566000000E+00 0.  1.
        994   -1    0    0    0    0 -0.00000000000E+00 -0.00000000000E+00  0.11368683772E-12  0.17120000000E+03  0.17120000000E+03 0.  0.
         13    1    1    2    0    0  0.87545569626E+01 -0.52410930192E+01  0.13346690288E+02  0.16800494913E+02  0.10566000000E+00 0.  1.
        994    1    1    2    0    0 -0.14481623736E+01 -0.14852041279E+01  0.35705572731E+01  0.17124979382E+03  0.17120000000E+03 0.  0.
        998    1    1    2    0    0 -0.73063945890E+01  0.67262971471E+01  0.14830827487E+04  0.14831497113E+04  0.10000000000E+02 0.  1.
</event>
<event>
 5    1  0.1360042E-008  0.3709606E+03  0.7957747E-01  0.3491488E+00
         13   -1    0    0    0    0  0.00000000000E+00  0.00000000000E+00  0.14999999963E+04  0.15000000000E+04  0.10566000000E+00 0. -1.
        994   -1    0    0    0    0 -0.00000000000E+00 -0.00000000000E+00  0.11368683772E-12  0.17120000000E+03  0.17120000000E+03 0.  0.
         13    1    1    2    0    0  0.46035570857E+02 -0.41344633421E+02  0.16494226573E+03  0.17616644029E+03  0.10566000000E+00 0. -1.
        994    1    1    2    0    0 -0.28529941600E+02  0.21569248151E+02  0.15948101161E+02  0.17562167282E+03  0.17120000000E+03 0.  0.
        998    1    1    2    0    0 -0.17505629257E+02  0.19775385270E+02  0.13191096294E+04  0.13194118869E+04  0.10000000000E+02 0. -1.
</event>
<event>
 5    1  0.1360042E-008  0.3803889E+03  0.7957747E-01  0.3449467E+00
         13   -1    0    0    0    0  0.00000000000E+00  0.00000000000E+00  0.14999999963E+04  0.15000000000E+04  0.10566000000E+00 0. -1.
        994   -1    0    0    0    0 -0.00000000000E+00 -0.00000000000E+00  0.11368683772E-12  0.17120000000E+03  0.17120000000E+03 0.  0.
         13    1    1    2    0    0 -0.12058774903E+02  0.33880233913E+02  0.14674848888E+03  0.15109074907E+03  0.10566000000E+00 0. -1.
        994    1    1    2    0    0  0.15120179475E+02 -0.34697297215E+02  0.87344608230E+01  0.17555128330E+03  0.17120000000E+03 0.  0.
        998    1    1    2    0    0 -0.30614045720E+01  0.81706330219E+00  0.13445170466E+04  0.13445579676E+04  0.10000000000E+02 0. -1.
</event>
<event>
 5    1  0.1360042E-008  0.3689798E+03  0.7957747E-01  0.3500593E+00
         13   -1    0    0    0    0  0.00000000000E+00  0.00000000000E+00  0.14999999963E+04  0.15000000000E+04  0.10566000000E+00 0. -1.
        994   -1    0    0    0    0 -0.00000000000E+00 -0.00000000000E+00  0.11368683772E-12  0.17120000000E+03  0.17120000000E+03 0.  0.
         13    1    1    2    0    0 -0.97056392304E+02 -0.85325657123E+01  0.33974543500E+03  0.35343983891E+03  0.10566000000E+00 0. -1.
        994    1    1    2    0    0  0.10003952463E+03  0.43020411722E+01  0.46192071911E+02  0.20364076594E+03  0.17120000000E+03 0.  0.
        998    1    1    2    0    0 -0.29831323247E+01  0.42305245401E+01  0.11140624894E+04  0.11141193951E+04  0.10000000000E+02 0.  1.
</event>
<event>
 5    1  0.1360042E-008  0.3854657E+03  0.7957747E-01  0.3427699E+00
         13   -1    0    0    0    0  0.00000000000E+00  0.00000000000E+00  0.14999999963E+04  0.15000000000E+04  0.10566000000E+00 0.  1.
        994   -1    0    0    0    0 -0.00000000000E+00 -0.00000000000E+00  0.11368683772E-12  0.17120000000E+03  0.17120000000E+03 0.  0.
         13    1    1    2    0    0  0.12181114396E+02  0.39347496836E+01  0.68783493384E+02  0.69964576246E+02  0.10566000000E+00 0.  1.
        994    1    1    2    0    0  0.16831762337E+02 -0.10447392898E+02  0.26888598956E+01  0.17236335518E+03  0.17120000000E+03 0.  0.
        998    1    1    2    0    0 -0.29012876734E+02  0.65126432145E+01  0.14285276430E+04  0.14288720686E+04  0.10000000000E+02 0.  1.
</event>
<event>
 5    1  0.1360042E-008  0.3770047E+03  0.7957747E-01  0.3464305E+00
         13   -1    0    0    0    0  0.00000000000E+00  0.00000000000E+00  0.14999999963E+04  0.15000000000E+04  0.10566000000E+00 0.  1.
        994   -1    0    0    0    0 -0.00000000000E+00 -0.00000000000E+00  0.11368683772E-12  0.17120000000E+03  0.17120000000E+03 0.  0.
         13    1    1    2    0    0  0.70454672897E+02 -0.54680689937E+02  0.50407001469E+03  0.51189884710E+03  0.10566000000E+00 0.  1.
        994    1    1    2    0    0 -0.70149020809E+02  0.43324825538E+02  0.28960946568E+02  0.19221368852E+03  0.17120000000E+03 0.  0.
        998    1    1    2    0    0 -0.30565208829E+00  0.11355864400E+02  0.96696903502E+03  0.96708746438E+03  0.10000000000E+02 0.  1.
</event>
<event>
 5    1  0.1360042E-008  0.3684382E+03  0.7957747E-01  0.3503100E+00
         13   -1    0    0    0    0  0.00000000000E+00  0.00000000000E+00  0.14999999963E+04  0.15000000000E+04  0.10566000000E+00 0.  1.
        994   -1    0    0    0    0 -0.00000000000E+00 -0.00000000000E+00  0.11368683772E-12  0.17120000000E+03  0.17120000000E+03 0.  0.
         13    1    1    2    0    0  0.14114758893E+02  0.36877068744E+02  0.75522337441E+02  0.85221941039E+02  0.10566000000E+00 0.  1.
        994    1    1    2    0    0 -0.93599497328E+01 -0.15384599374E+02  0.11215897714E+02  0.17250950965E+03  0.17120000000E+03 0.  0.
        998    1    1    2    0    0 -0.47548091603E+01 -0.21492469370E+02  0.14132617611E+04  0.14134685493E+04  0.10000000000E+02 0.  1.
</event>
<event>
 5    1  0.1360042E-008  0.3841913E+03  0.7957747E-01  0.3433109E+00
         13   -1    0    0    0    0  0.00000000000E+00  0.00000000000E+00  0.14999999963E+04  0.15000000000E+04  0.10566000000E+00 0.  1.
        994   -1    0    0    0    0 -0.00000000000E+00 -0.00000000000E+00  0.11368683772E-12  0.17120000000E+03  0.17120000000E+03 0.  0.
         13    1    1    2    0    0 -0.10540962231E+02 -0.40554805300E+01  0.31149444506E+02  0.33133938253E+02  0.10566000000E+00 0.  1.
        994    1    1    2    0    0  0.35919966439E+01  0.58885562928E+01  0.21890677777E+01  0.17135288020E+03  0.17120000000E+03 0.  0.
        998    1    1    2    0    0  0.69489655872E+01 -0.18330757627E+01  0.14666614840E+04  0.14667131815E+04  0.10000000000E+02 0.  1.
</event>
<event>
 5    1  0.1360042E-008  0.3723871E+03  0.7957747E-01  0.3484992E+00
         13   -1    0    0    0    0  0.00000000000E+00  0.00000000000E+00  0.14999999963E+04  0.15000000000E+04  0.10566000000E+00 0. -1.
        994   -1    0    0    0    0 -0.00000000000E+00 -0.00000000000E+00  0.11368683772E-12  0.17120000000E+03  0.17120000000E+03 0.  0.
         13    1    1    2    0    0 -0.49233130336E+02 -0.13794856928E+02  0.17605693252E+03  0.18333099535E+03  0.10566000000E+00 0. -1.
        994    1    1    2    0    0  0.12253349426E+02  0.12149045710E+01  0.85467917899E+01  0.17185490454E+03  0.17120000000E+03 0.  0.
        998    1    1    2    0    0  0.36979780910E+02  0.12579952357E+02  0.13153962720E+04  0.13160141001E+04  0.10000000000E+02 0. -1.
</event>
<event>
 5    1  0.1360042E-008  0.3804681E+03  0.7957747E-01  0.3449123E+00
         13   -1    0    0    0    0  0.00000000000E+00  0.00000000000E+00  0.14999999963E+04  0.15000000000E+04  0.10566000000E+00 0. -1.
        994   -1    0    0    0    0 -0.00000000000E+00 -0.00000000000E+00  0.11368683772E-12  0.17120000000E+03  0.17120000000E+03 0.  0.
         13    1    1    2    0    0 -0.11871036026E+03 -0.23711540771E+03  0.11595210015E+04  0.11894556865E+04  0.10566000000E+00 0. -1.
        994    1    1    2    0    0  0.11375640088E+03  0.23630003410E+03  0.27957581261E+03  0.41982174772E+03  0.17120000000E+03 0.  0.
        998    1    1    2    0    0  0.49539593722E+01  0.81537360814E+00  0.60903182197E+02  0.61922565752E+02  0.10000000000E+02 0.  0.
</event>
<event>
 5    1  0.1360042E-008  0.3781430E+03  0.7957747E-01  0.3459284E+00
         13   -1    0    0    0    0  0.00000000000E+00  0.00000000000E+00  0.14999999963E+04  0.15000000000E+04  0.10566000000E+00 0.  1.
        994   -1    0    0    0    0 -0.00000000000E+00 -0.00000000000E+00  0.11368683772E-12  0.17120000000E+03  0.17120000000E+03 0.  0.
         13    1    1    2    0    0  0.14222265504E+01 -0.28291891754E+02  0.75632164601E+02  0.80763168299E+02  0.10566000000E+00 0.  1.
        994    1    1    2    0    0 -0.56628265789E+01  0.22521836026E+02  0.68895556548E+01  0.17290519564E+03  0.17120000000E+03 0.  0.
        998    1    1    2    0    0  0.42406000285E+01  0.57700557280E+01  0.14174782760E+04  0.14175316361E+04  0.10000000000E+02 0.  1.
</event>
<event>
 5    1  0.1360042E-008  0.3765441E+03  0.7957747E-01  0.3466346E+00
         13   -1    0    0    0    0  0.00000000000E+00  0.00000000000E+00  0.14999999963E+04  0.15000000000E+04  0.10566000000E+00 0. -1.
        994   -1    0    0    0    0 -0.00000000000E+00 -0.00000000000E+00  0.11368683772E-12  0.17120000000E+03  0.17120000000E+03 0.  0.
         13    1    1    2    0    0 -0.21774141614E+02 -0.49444649158E+02  0.21896120786E+03  0.22552806540E+03  0.10566000000E+00 0. -1.
        994    1    1    2    0    0 -0.12279129228E+02  0.60378882446E+02  0.18835466330E+02  0.18292239134E+03  0.17120000000E+03 0.  0.
        998    1    1    2    0    0  0.34053270842E+02 -0.10934233288E+02  0.12622033221E+04  0.12627495433E+04  0.10000000000E+02 0. -1.
</event>
<event>
 5    1  0.1360042E-008  0.3781002E+03  0.7957747E-01  0.3459472E+00
         13   -1    0    0    0    0  0.00000000000E+00  0.00000000000E+00  0.14999999963E+04  0.15000000000E+04  0.10566000000E+00 0. -1.
        994   -1    0    0    0    0 -0.00000000000E+00 -0.00000000000E+00  0.11368683772E-12  0.17120000000E+03  0.17120000000E+03 0.  0.
         13    1    1    2    0    0 -0.63078844401E+00  0.22060702139E+02  0.42616952017E+02  0.47992585221E+02  0.10566000000E+00 0. -1.
        994    1    1    2    0    0  0.23207753914E+00 -0.36651411385E+02  0.96277248234E+01  0.17534398450E+03  0.17120000000E+03 0.  0.
        998    1    1    2    0    0  0.39871090487E+00  0.14590709246E+02  0.14477553194E+04  0.14478634303E+04  0.10000000000E+02 0. -1.
</event>
<event>
 5    1  0.1360042E-008  0.3850213E+03  0.7957747E-01  0.3429582E+00
         13   -1    0    0    0    0  0.00000000000E+00  0.00000000000E+00  0.14999999963E+04  0.15000000000E+04  0.10566000000E+00 0. -1.
        994   -1    0    0    0    0 -0.00000000000E+00 -0.00000000000E+00  0.11368683772E-12  0.17120000000E+03  0.17120000000E+03 0.  0.
         13    1    1    2    0    0 -0.12077898399E+02  0.65399582593E+01  0.60358062851E+02  0.61901159916E+02  0.10566000000E+00 0. -1.
        994    1    1    2    0    0  0.40994606166E+01  0.59308328774E+00  0.16759911412E+01  0.17125830278E+03  0.17120000000E+03 0.  0.
        998    1    1    2    0    0  0.79784377828E+01 -0.71330415470E+01  0.14379659423E+04  0.14380405373E+04  0.10000000000E+02 0. -1.
</event>
<event>
 5    1  0.1360042E-008  0.3857491E+03  0.7957747E-01  0.3426501E+00
         13   -1    0    0    0    0  0.00000000000E+00  0.00000000000E+00  0.14999999963E+04  0.15000000000E+04  0.10566000000E+00 0. -1.
        994   -1    0    0    0    0 -0.00000000000E+00 -0.00000000000E+00  0.11368683772E-12  0.17120000000E+03  0.17120000000E+03 0.  0.
         13    1    1    2    0    0 -0.13613231254E+02 -0.13377548900E+01  0.71375186573E+02  0.72674191263E+02  0.10566000000E+00 0. -1.
        994    1    1    2    0    0  0.15740709619E+02 -0.11620693764E+01  0.20763965206E+01  0.17193856975E+03  0.17120000000E+03 0.  0.
        998    1    1    2    0    0 -0.21274783651E+01  0.24998242664E+01  0.14265484132E+04  0.14265872390E+04  0.10000000000E+02 0. -1.
</event>
<event>
 5    1  0.1360042E-008  0.3845372E+03  0.7957747E-01  0.3431637E+00
         13   -1    0    0    0    0  0.00000000000E+00  0.00000000000E+00  0.14999999963E+04  0.15000000000E+04  0.10566000000E+00 0. -1.
        994   -1    0    0    0    0 -0.00000000000E+00 -0.00000000000E+00  0.11368683772E-12  0.17120000000E+03  0.17120000000E+03 0.  0.
         13    1    1    2    0    0  0.21551228144E+02  0.75630105864E+01  0.13158079488E+03  0.13354838565E+03  0.10566000000E+00 0. -1.
        994    1    1    2    0    0 -0.21072142076E+02 -0.46816561889E+01  0.33962384266E+01  0.17258889742E+03  0.17120000000E+03 0.  0.
        998    1    1    2    0    0 -0.47908606800E+00 -0.28813543974E+01  0.13650229630E+04  0.13650627169E+04  0.10000000000E+02 0.  0.
</event>
<event>
 5    1  0.1360042E-008  0.3777537E+03  0.7957747E-01  0.3460998E+00
         13   -1    0    0    0    0  0.00000000000E+00  0.00000000000E+00  0.14999999963E+04  0.15000000000E+04  0.10566000000E+00 0. -1.
        994   -1    0    0    0    0 -0.00000000000E+00 -0.00000000000E+00  0.11368683772E-12  0.17120000000E+03  0.17120000000E+03 0.  0.
         13    1    1    2    0    0  0.16755568528E+02 -0.62932629644E+01  0.28200030743E+02  0.33400705582E+02  0.10566000000E+00 0. -1.
        994    1    1    2    0    0 -0.80186438097E+01  0.14225262503E+02  0.61699560988E+01  0.17208766690E+03  0.17120000000E+03 0.  0.
        998    1    1    2    0    0 -0.87369247187E+01 -0.79319995388E+01  0.14656300094E+04  0.14657116275E+04  0.10000000000E+02 0. -1.
</event>
<event>
 5    1  0.1360042E-008  0.3769096E+03  0.7957747E-01  0.3464726E+00
         13   -1    0    0    0    0  0.00000000000E+00  0.00000000000E+00  0.14999999963E+04  0.15000000000E+04  0.10566000000E+00 0. -1.
        994   -1    0    0    0    0 -0.00000000000E+00 -0.00000000000E+00  0.11368683772E-12  0.17120000000E+03  0.17120000000E+03 0.  0.
         13    1    1    2    0    0 -0.59810165625E+01  0.29298277262E+02  0.71532817562E+02  0.77531392107E+02  0.10566000000E+00 0. -1.
        994    1    1    2    0    0  0.32668545793E+01 -0.35626651270E+02  0.10036437218E+02  0.17518590323E+03  0.17120000000E+03 0.  0.
        998    1    1    2    0    0  0.27141619832E+01  0.63283740077E+01  0.14184307415E+04  0.14184827047E+04  0.10000000000E+02 0. -1.
</event>
<event>
 5    1  0.1360042E-008  0.3688235E+03  0.7957747E-01  0.3501315E+00
         13   -1    0    0    0    0  0.00000000000E+00  0.00000000000E+00  0.14999999963E+04  0.15000000000E+04  0.10566000000E+00 0.  1.
        994   -1    0    0    0    0 -0.00000000000E+00 -0.00000000000E+00  0.11368683772E-12  0.17120000000E+03  0.17120000000E+03 0.  0.
         13    1    1    2    0    0 -0.25512779568E+01 -0.43568694852E+02  0.92749788181E+02  0.10250499774E+03  0.10566000000E+00 0.  1.
        994    1    1    2    0    0  0.40720207526E+02  0.25732274529E+02  0.17984333358E+02  0.17875447267E+03  0.17120000000E+03 0.  0.
        998    1    1    2    0    0 -0.38168929569E+02  0.17836420323E+02  0.13892658747E+04  0.13899405296E+04  0.10000000000E+02 0.  1.
</event>
<event>
 5    1  0.1360042E-008  0.3859223E+03  0.7957747E-01  0.3425770E+00
         13   -1    0    0    0    0  0.00000000000E+00  0.00000000000E+00  0.14999999963E+04  0.15000000000E+04  0.10566000000E+00 0. -1.
        994   -1    0    0    0    0 -0.00000000000E+00 -0.00000000000E+00  0.11368683772E-12  0.17120000000E+03  0.17120000000E+03 0.  0.
         13    1    1    2    0    0  0.35758343478E+01  0.10101574260E+02  0.51567103919E+02  0.52668831053E+02  0.10566000000E+00 0. -1.
        994    1    1    2    0    0  0.69058854183E+01 -0.35356645059E+01  0.13703146657E+01  0.17138118315E+03  0.17120000000E+03 0.  0.
        998    1    1    2    0    0 -0.10481719766E+02 -0.65659097542E+01  0.14470625777E+04  0.14471499858E+04  0.10000000000E+02 0. -1.
</event>
<event>
 5    1  0.1360042E-008  0.3812685E+03  0.7957747E-01  0.3445653E+00
         13   -1    0    0    0    0  0.00000000000E+00  0.00000000000E+00  0.14999999963E+04  0.15000000000E+04  0.10566000000E+00 0.  1.
        994   -1    0    0    0    0 -0.00000000000E+00 -0.00000000000E+00  0.11368683772E-12  0.17120000000E+03  0.17120000000E+03 0.  0.
         13    1    1    2    0    0 -0.25028332653E+01 -0.17933156562E+02  0.44490768608E+02  0.48034382832E+02  0.10566000000E+00 0.  1.
        994    1    1    2    0    0  0.15125956815E+01  0.18698415532E+02  0.46665559410E+01  0.17228794338E+03  0.17120000000E+03 0.  0.
        998    1    1    2    0    0  0.99023758375E+00 -0.76525896933E+00  0.14508426717E+04  0.14508776738E+04  0.10000000000E+02 0.  1.
</event>
<event>
 5    1  0.1360042E-008  0.3826332E+03  0.7957747E-01  0.3439773E+00
         13   -1    0    0    0    0  0.00000000000E+00  0.00000000000E+00  0.14999999963E+04  0.15000000000E+04  0.10566000000E+00 0.  1.
        994   -1    0    0    0    0 -0.00000000000E+00 -0.00000000000E+00  0.11368683772E-12  0.17120000000E+03  0.17120000000E+03 0.  0.
         13    1    1    2    0    0 -0.12191735107E+02 -0.40807051392E+01  0.28460345902E+02  0.31229681590E+02  0.10566000000E+00 0.  1.
        994    1    1    2    0    0  0.83397669898E+01  0.13424217818E+01  0.30463192744E+01  0.17143533437E+03  0.17120000000E+03 0.  0.
        998    1    1    2    0    0  0.38519681167E+01  0.27382833574E+01  0.14684933311E+04  0.14685349840E+04  0.10000000000E+02 0.  1.
</event>
<event>
 5    1  0.1360042E-008  0.3814517E+03  0.7957747E-01  0.3444862E+00
         13   -1    0    0    0    0  0.00000000000E+00  0.00000000000E+00  0.14999999963E+04  0.15000000000E+04  0.10566000000E+00 0. -1.
        994   -1    0    0    0    0 -0.00000000000E+00 -0.00000000000E+00  0.11368683772E-12  0.17120000000E+03  0.17120000000E+03 0.  0.
         13    1    1    2    0    0 -0.18475718079E+03 -0.16569671459E+02  0.92394650012E+03  0.94238363531E+03  0.10566000000E+00 0. -1.
        994    1    1    2    0    0  0.20248986739E+03  0.13856968588E+02  0.15539006320E+03  0.30765187098E+03  0.17120000000E+03 0.  0.
        998    1    1    2    0    0 -0.17732686601E+02  0.27127028710E+01  0.42066343296E+03  0.42116449371E+03  0.10000000000E+02 0. -1.
</event>
<event>
 5    1  0.1526106E-008  0.3858939E+03  0.7957747E-01  0.3425890E+00
         13   -1    0    0    0    0  0.00000000000E+00  0.00000000000E+00  0.14999999963E+04  0.15000000000E+04  0.10566000000E+00 0. -1.
        994   -1    0    0    0    0 -0.00000000000E+00 -0.00000000000E+00  0.11368683772E-12  0.17120000000E+03  0.17120000000E+03 0.  0.
         13    1    1    2    0    0 -0.22274310639E+01 -0.11923311867E+02  0.61805352196E+02  0.62984438865E+02  0.10566000000E+00 0. -1.
        994    1    1    2    0    0 -0.21432501868E+01  0.10470663341E+02  0.15616637995E+01  0.17154039497E+03  0.17120000000E+03 0.  0.
        998    1    1    2    0    0  0.43706812507E+01  0.14526485253E+01  0.14366329803E+04  0.14366751662E+04  0.10000000000E+02 0. -1.
</event>
<event>
 5    1  0.1360042E-008  0.3720786E+03  0.7957747E-01  0.3486392E+00
         13   -1    0    0    0    0  0.00000000000E+00  0.00000000000E+00  0.14999999963E+04  0.15000000000E+04  0.10566000000E+00 0. -1.
        994   -1    0    0    0    0 -0.00000000000E+00 -0.00000000000E+00  0.11368683772E-12  0.17120000000E+03  0.17120000000E+03 0.  0.
         13    1    1    2    0    0 -0.18255202948E+02  0.51040806336E+02  0.11276399977E+03  0.12511653430E+03  0.10566000000E+00 0. -1.
        994    1    1    2    0    0  0.53950095219E+01 -0.47662189978E+02  0.20189027111E+02  0.17893526007E+03  0.17120000000E+03 0.  0.
        998    1    1    2    0    0  0.12860193426E+02 -0.33786163577E+01  0.13670469694E+04  0.13671482056E+04  0.10000000000E+02 0. -1.
</event>
<event>
 5    1  0.1360042E-008  0.3780901E+03  0.7957747E-01  0.3459517E+00
         13   -1    0    0    0    0  0.00000000000E+00  0.00000000000E+00  0.14999999963E+04  0.15000000000E+04  0.10566000000E+00 0. -1.
        994   -1    0    0    0    0 -0.00000000000E+00 -0.00000000000E+00  0.11368683772E-12  0.17120000000E+03  0.17120000000E+03 0.  0.
         13    1    1    2    0    0 -0.18016328867E+02  0.72113138354E+01  0.36718475518E+02  0.41531298577E+02  0.10566000000E+00 0. -1.
        994    1    1    2    0    0 -0.64865181561E+01 -0.64436985439E+01  0.53816241499E+01  0.17152841761E+03  0.17120000000E+03 0.  0.
        998    1    1    2    0    0  0.24502847024E+02 -0.76761529153E+00  0.14578998966E+04  0.14581402838E+04  0.10000000000E+02 0. -1.
</event>
<event>
 5    1  0.1360042E-008  0.3705468E+03  0.7957747E-01  0.3493381E+00
         13   -1    0    0    0    0  0.00000000000E+00  0.00000000000E+00  0.14999999963E+04  0.15000000000E+04  0.10566000000E+00 0.  1.
        994   -1    0    0    0    0 -0.00000000000E+00 -0.00000000000E+00  0.11368683772E-12  0.17120000000E+03  0.17120000000E+03 0.  0.
         13    1    1    2    0    0 -0.36287983333E+02  0.41435725853E+02  0.19994865112E+03  0.20739626651E+03  0.10566000000E+00 0.  1.
        994    1    1    2    0    0 -0.89844171061E+01 -0.52691325912E+01  0.93579953068E+01  0.17177163790E+03  0.17120000000E+03 0.  0.
        998    1    1    2    0    0  0.45272400439E+02 -0.36166593262E+02  0.12906933498E+04  0.12920320956E+04  0.10000000000E+02 0.  1.
</event>
<event>
 5    1  0.1360042E-008  0.3845994E+03  0.7957747E-01  0.3431373E+00
         13   -1    0    0    0    0  0.00000000000E+00  0.00000000000E+00  0.14999999963E+04  0.15000000000E+04  0.10566000000E+00 0.  1.
        994   -1    0    0    0    0 -0.00000000000E+00 -0.00000000000E+00  0.11368683772E-12  0.17120000000E+03  0.17120000000E+03 0.  0.
         13    1    1    2    0    0  0.16098625281E+02  0.40184582702E+01  0.71116412043E+02  0.73026494978E+02  0.10566000000E+00 0.  1.
        994    1    1    2    0    0 -0.19225022474E+02 -0.36343922122E+01  0.30907365204E+01  0.17234211020E+03  0.17120000000E+03 0.  0.
        998    1    1    2    0    0  0.31263971934E+01 -0.38406605796E+00  0.14257928477E+04  0.14258313948E+04  0.10000000000E+02 0.  1.
</event>
<event>
 5    1  0.1360042E-008  0.3860205E+03  0.7957747E-01  0.3425355E+00
         13   -1    0    0    0    0  0.00000000000E+00  0.00000000000E+00  0.14999999963E+04  0.15000000000E+04  0.10566000000E+00 0. -1.
        994   -1    0    0    0    0 -0.00000000000E+00 -0.00000000000E+00  0.11368683772E-12  0.17120000000E+03  0.17120000000E+03 0.  0.
         13    1    1    2    0    0  0.64107816379E+01  0.93043882932E+01  0.57073172952E+02  0.58180993439E+02  0.10566000000E+00 0. -1.
        994    1    1    2    0    0 -0.41972057568E+01 -0.74863744350E+01  0.13657881637E+01  0.17142044136E+03  0.17120000000E+03 0.  0.
        998    1    1    2    0    0 -0.22135758811E+01 -0.18180138582E+01  0.14415610352E+04  0.14415985652E+04  0.10000000000E+02 0. -1.
</event>
<event>
 5    1  0.1360042E-008  0.3754861E+03  0.7957747E-01  0.3471051E+00
         13   -1    0    0    0    0  0.00000000000E+00  0.00000000000E+00  0.14999999963E+04  0.15000000000E+04  0.10566000000E+00 0. -1.
        994   -1    0    0    0    0 -0.00000000000E+00 -0.00000000000E+00  0.11368683772E-12  0.17120000000E+03  0.17120000000E+03 0.  0.
         13    1    1    2    0    0 -0.18652119843E+02 -0.22706683925E+02  0.63838118245E+02  0.70276678740E+02  0.10566000000E+00 0. -1.
        994    1    1    2    0    0  0.17573916958E+02  0.15022034014E+02  0.82453126323E+01  0.17295065552E+03  0.17120000000E+03 0.  0.
        998    1    1    2    0    0  0.10782028852E+01  0.76846499108E+01  0.14279165654E+04  0.14279726657E+04  0.10000000000E+02 0. -1.
</event>
<event>
 5    1  0.1360042E-008  0.3947731E+03  0.7957747E-01  0.3389252E+00
         13   -1    0    0    0    0  0.00000000000E+00  0.00000000000E+00  0.14999999963E+04  0.15000000000E+04  0.10566000000E+00 0.  1.
        994   -1    0    0    0    0 -0.00000000000E+00 -0.00000000000E+00  0.11368683772E-12  0.17120000000E+03  0.17120000000E+03 0.  0.
         13    1    1    2    0    0  0.51438200156E+01  0.46767349114E+02  0.35743693798E+02  0.59086941347E+02  0.10566000000E+00 0.  1.
        994    1    1    2    0    0  0.19599952752E+01 -0.36088872251E+02  0.29713887409E+02  0.17747845894E+03  0.17120000000E+03 0.  0.
        998    1    1    2    0    0 -0.71038152908E+01 -0.10678476863E+02  0.14345424151E+04  0.14346345997E+04  0.10000000000E+02 0.  1.
</event>
<event>
 5    1  0.1360042E-008  0.3773163E+03  0.7957747E-01  0.3462928E+00
         13   -1    0    0    0    0  0.00000000000E+00  0.00000000000E+00  0.14999999963E+04  0.15000000000E+04  0.10566000000E+00 0.  1.
        994   -1    0    0    0    0 -0.00000000000E+00 -0.00000000000E+00  0.11368683772E-12  0.17120000000E+03  0.17120000000E+03 0.  0.
         13    1    1    2    0    0  0.40406170140E+02 -0.79100579716E+02  0.43755788706E+03  0.44648233559E+03  0.10566000000E+00 0.  1.
        994    1    1    2    0    0 -0.65643312053E+02  0.81548128357E+02  0.43398424249E+02  0.20530953432E+03  0.17120000000E+03 0.  0.
        998    1    1    2    0    0  0.25237141913E+02 -0.24475486410E+01  0.10190436850E+04  0.10194081301E+04  0.10000000000E+02 0.  1.
</event>
<event>
 5    1  0.1360042E-008  0.3826257E+03  0.7957747E-01  0.3439805E+00
         13   -1    0    0    0    0  0.00000000000E+00  0.00000000000E+00  0.14999999963E+04  0.15000000000E+04  0.10566000000E+00 0.  1.
        994   -1    0    0    0    0 -0.00000000000E+00 -0.00000000000E+00  0.11368683772E-12  0.17120000000E+03  0.17120000000E+03 0.  0.
         13    1    1    2    0    0 -0.99264650888E+01 -0.29789910016E+02  0.17360331673E+03  0.17642022614E+03  0.10566000000E+00 0.  1.
        994    1    1    2    0    0  0.16165655908E+01  0.19516713505E+02  0.40855997282E+01  0.17236486740E+03  0.17120000000E+03 0.  0.
        998    1    1    2    0    0  0.83098994981E+01  0.10273196512E+02  0.13223110798E+04  0.13224149065E+04  0.10000000000E+02 0.  1.
</event>
<event>
 5    1  0.1360042E-008  0.3860042E+03  0.7957747E-01  0.3425424E+00
         13   -1    0    0    0    0  0.00000000000E+00  0.00000000000E+00  0.14999999963E+04  0.15000000000E+04  0.10566000000E+00 0. -1.
        994   -1    0    0    0    0 -0.00000000000E+00 -0.00000000000E+00  0.11368683772E-12  0.17120000000E+03  0.17120000000E+03 0.  0.
         13    1    1    2    0    0 -0.10568444464E+02  0.91846094651E+01  0.84609046000E+02  0.85759844324E+02  0.10566000000E+00 0. -1.
        994    1    1    2    0    0  0.19818666374E+01 -0.18160043991E+02  0.22270419064E+01  0.17218627910E+03  0.17120000000E+03 0.  0.
        998    1    1    2    0    0  0.85865778263E+01  0.89754345261E+01  0.14131639084E+04  0.14132538766E+04  0.10000000000E+02 0. -1.
</event>
<event>
 5    1  0.1360042E-008  0.3823795E+03  0.7957747E-01  0.3440863E+00
         13   -1    0    0    0    0  0.00000000000E+00  0.00000000000E+00  0.14999999963E+04  0.15000000000E+04  0.10566000000E+00 0. -1.
        994   -1    0    0    0    0 -0.00000000000E+00 -0.00000000000E+00  0.11368683772E-12  0.17120000000E+03  0.17120000000E+03 0.  0.
         13    1    1    2    0    0 -0.85302888207E+01  0.17589169574E+02  0.61929729855E+02  0.64941876456E+02  0.10566000000E+00 0. -1.
        994    1    1    2    0    0  0.70374388318E+01 -0.18771003141E+02  0.42708895165E+01  0.17242261047E+03  0.17120000000E+03 0.  0.
        998    1    1    2    0    0  0.14928499889E+01  0.11818335671E+01  0.14337993769E+04  0.14338355131E+04  0.10000000000E+02 0.  0.
</event>
<event>
 5    1  0.1360042E-008  0.3812056E+03  0.7957747E-01  0.3445926E+00
         13   -1    0    0    0    0  0.00000000000E+00  0.00000000000E+00  0.14999999963E+04  0.15000000000E+04  0.10566000000E+00 0. -1.
        994   -1    0    0    0    0 -0.00000000000E+00 -0.00000000000E+00  0.11368683772E-12  0.17120000000E+03  0.17120000000E+03 0.  0.
         13    1    1    2    0    0 -0.19616228364E+02  0.11406980006E+01  0.54250555910E+02  0.57699493825E+02  0.10566000000E+00 0. -1.
        994    1    1    2    0    0  0.93471877323E+01 -0.16834215298E+01  0.38262063295E+01  0.17150592900E+03  0.17120000000E+03 0.  0.
        998    1    1    2    0    0  0.10269040632E+02  0.54272352919E+00  0.14419232340E+04  0.14419945772E+04  0.10000000000E+02 0. -1.
</event>
<event>
 5    1  0.1360042E-008  0.2828754E+03  0.7957747E-01  0.4026404E+00
         13   -1    0    0    0    0  0.00000000000E+00  0.00000000000E+00  0.14999999963E+04  0.15000000000E+04  0.10566000000E+00 0. -1.
        994   -1    0    0    0    0 -0.00000000000E+00 -0.00000000000E+00  0.11368683772E-12  0.17120000000E+03  0.17120000000E+03 0.  0.
         13    1    1    2    0    0 -0.18979597985E+03 -0.99058966488E+02  0.66877765058E+03  0.70220990444E+03  0.10566000000E+00 0. -1.
        994    1    1    2    0    0  0.48773742824E+02  0.14747618320E+03  0.15951466485E+03  0.28086023375E+03  0.17120000000E+03 0.  0.
        998    1    1    2    0    0  0.14102223703E+03 -0.48417216708E+02  0.67170768085E+03  0.68812986181E+03  0.10000000000E+02 0. -1.
</event>
<event>
 5    1  0.1360042E-008  0.3799780E+03  0.7957747E-01  0.3451254E+00
         13   -1    0    0    0    0  0.00000000000E+00  0.00000000000E+00  0.14999999963E+04  0.15000000000E+04  0.10566000000E+00 0. -1.
        994   -1    0    0    0    0 -0.00000000000E+00 -0.00000000000E+00  0.11368683772E-12  0.17120000000E+03  0.17120000000E+03 0.  0.
         13    1    1    2    0    0 -0.38758524286E+02 -0.63318827411E+02  0.15105115838E+03  0.16830912251E+03  0.10566000000E+00 0. -1.
        994    1    1    2    0    0  0.37110927080E+02  0.57729596139E+02  0.33585075553E+02  0.18747619710E+03  0.17120000000E+03 0.  0.
        998    1    1    2    0    0  0.16475972058E+01  0.55892312717E+01  0.13153637623E+04  0.13154146804E+04  0.10000000000E+02 0. -1.
</event>
<event>
 5    1  0.1360042E-008  0.3823555E+03  0.7957747E-01  0.3440966E+00
         13   -1    0    0    0    0  0.00000000000E+00  0.00000000000E+00  0.14999999963E+04  0.15000000000E+04  0.10566000000E+00 0. -1.
        994   -1    0    0    0    0 -0.00000000000E+00 -0.00000000000E+00  0.11368683772E-12  0.17120000000E+03  0.17120000000E+03 0.  0.
         13    1    1    2    0    0  0.14594754155E+02 -0.74068519411E+01  0.34342771826E+02  0.38043467839E+02  0.10566000000E+00 0. -1.
        994    1    1    2    0    0 -0.56645085984E+02  0.67364786781E+02  0.29085480862E+02  0.19468457941E+03  0.17120000000E+03 0.  0.
        998    1    1    2    0    0  0.42050331829E+02 -0.59957934840E+02  0.14365717436E+04  0.14384719527E+04  0.10000000000E+02 0. -1.
</event>
<event>
 5    1  0.1360042E-008  0.3825366E+03  0.7957747E-01  0.3440187E+00
         13   -1    0    0    0    0  0.00000000000E+00  0.00000000000E+00  0.14999999963E+04  0.15000000000E+04  0.10566000000E+00 0. -1.
        994   -1    0    0    0    0 -0.00000000000E+00 -0.00000000000E+00  0.11368683772E-12  0.17120000000E+03  0.17120000000E+03 0.  0.
         13    1    1    2    0    0  0.49758388940E+01 -0.12872982799E+02  0.32499919819E+02  0.35309044324E+02  0.10566000000E+00 0. -1.
        994    1    1    2    0    0 -0.14736892145E+02  0.27712871381E+01  0.36039037312E+01  0.17189323473E+03  0.17120000000E+03 0.  0.
        998    1    1    2    0    0  0.97610532510E+01  0.10101695661E+02  0.14638961727E+04  0.14639977209E+04  0.10000000000E+02 0. -1.
</event>
<event>
 5    1  0.1360042E-008  0.3847961E+03  0.7957747E-01  0.3430537E+00
         13   -1    0    0    0    0  0.00000000000E+00  0.00000000000E+00  0.14999999963E+04  0.15000000000E+04  0.10566000000E+00 0. -1.
        994   -1    0    0    0    0 -0.00000000000E+00 -0.00000000000E+00  0.11368683772E-12  0.17120000000E+03  0.17120000000E+03 0.  0.
         13    1    1    2    0    0  0.39316184086E+01 -0.13388729573E+02  0.57171158585E+02  0.58849539003E+02  0.10566000000E+00 0. -1.
        994    1    1    2    0    0 -0.13091844032E+02  0.25885863536E+01  0.23176905027E+01  0.17173499599E+03  0.17120000000E+03 0.  0.
        998    1    1    2    0    0  0.91602256238E+01  0.10800143219E+02  0.14405111472E+04  0.14406154650E+04  0.10000000000E+02 0. -1.
</event>
<event>
 5    1  0.1360042E-008  0.3803700E+03  0.7957747E-01  0.3449549E+00
         13   -1    0    0    0    0  0.00000000000E+00  0.00000000000E+00  0.14999999963E+04  0.15000000000E+04  0.10566000000E+00 0.  1.
        994   -1    0    0    0    0 -0.00000000000E+00 -0.00000000000E+00  0.11368683772E-12  0.17120000000E+03  0.17120000000E+03 0.  0.
         13    1    1    2    0    0 -0.28098869258E+02 -0.82500024206E+02  0.42416275929E+03  0.43302408476E+03  0.10566000000E+00 0.  1.
        994    1    1    2    0    0  0.68318422896E+02  0.11415512630E+03  0.65497239560E+02  0.22649090083E+03  0.17120000000E+03 0.  0.
        998    1    1    2    0    0 -0.40219553637E+02 -0.31655102099E+02  0.10103399974E+04  0.10116850144E+04  0.10000000000E+02 0.  1.
</event>
<event>
 5    1  0.1360042E-008  0.3803964E+03  0.7957747E-01  0.3449434E+00
         13   -1    0    0    0    0  0.00000000000E+00  0.00000000000E+00  0.14999999963E+04  0.15000000000E+04  0.10566000000E+00 0. -1.
        994   -1    0    0    0    0 -0.00000000000E+00 -0.00000000000E+00  0.11368683772E-12  0.17120000000E+03  0.17120000000E+03 0.  0.
         13    1    1    2    0    0 -0.18236070481E+02 -0.37938291111E+01  0.43297835168E+02  0.47134500106E+02  0.10566000000E+00 0. -1.
        994    1    1    2    0    0  0.73427930191E+01  0.40014711632E+01  0.41666889709E+01  0.17145474528E+03  0.17120000000E+03 0.  0.
        998    1    1    2    0    0  0.10893277462E+02 -0.20764205214E+00  0.14525354721E+04  0.14526107546E+04  0.10000000000E+02 0. -1.
</event>
<event>
 5    1  0.1360042E-008  0.3841902E+03  0.7957747E-01  0.3433114E+00
         13   -1    0    0    0    0  0.00000000000E+00  0.00000000000E+00  0.14999999963E+04  0.15000000000E+04  0.10566000000E+00 0. -1.
        994   -1    0    0    0    0 -0.00000000000E+00 -0.00000000000E+00  0.11368683772E-12  0.17120000000E+03  0.17120000000E+03 0.  0.
         13    1    1    2    0    0 -0.12494267594E+02  0.17827736469E+02  0.11598133677E+03  0.11800684960E+03  0.10566000000E+00 0. -1.
        994    1    1    2    0    0  0.40609155077E+01 -0.14022035997E+02  0.27357401292E+01  0.17184304700E+03  0.17120000000E+03 0.  0.
        998    1    1    2    0    0  0.84333520864E+01 -0.38057004715E+01  0.13812829194E+04  0.13813501034E+04  0.10000000000E+02 0. -1.
</event>
<event>
 5    1  0.1360042E-008  0.3852158E+03  0.7957747E-01  0.3428758E+00
         13   -1    0    0    0    0  0.00000000000E+00  0.00000000000E+00  0.14999999963E+04  0.15000000000E+04  0.10566000000E+00 0. -1.
        994   -1    0    0    0    0 -0.00000000000E+00 -0.00000000000E+00  0.11368683772E-12  0.17120000000E+03  0.17120000000E+03 0.  0.
         13    1    1    2    0    0  0.93677959170E+01  0.70617639264E+01  0.44578076656E+02  0.46095988898E+02  0.10566000000E+00 0. -1.
        994    1    1    2    0    0 -0.45144877631E+01 -0.11396550839E+02  0.20170164936E+01  0.17165013931E+03  0.17120000000E+03 0.  0.
        998    1    1    2    0    0 -0.48533081539E+01  0.43347869125E+01  0.14534049031E+04  0.14534538718E+04  0.10000000000E+02 0. -1.
</event>
<event>
 5    1  0.1360042E-008  0.3801915E+03  0.7957747E-01  0.3450325E+00
         13   -1    0    0    0    0  0.00000000000E+00  0.00000000000E+00  0.14999999963E+04  0.15000000000E+04  0.10566000000E+00 0.  1.
        994   -1    0    0    0    0 -0.00000000000E+00 -0.00000000000E+00  0.11368683772E-12  0.17120000000E+03  0.17120000000E+03 0.  0.
         13    1    1    2    0    0  0.44345765120E+01  0.11418047851E+02  0.16941373798E+02  0.20905946421E+02  0.10566000000E+00 0.  1.
        994    1    1    2    0    0  0.50815407806E+01 -0.97020215107E+01  0.44373468088E+01  0.17160734636E+03  0.17120000000E+03 0.  0.
        998    1    1    2    0    0 -0.95161172927E+01 -0.17160263406E+01  0.14786212757E+04  0.14786867072E+04  0.10000000000E+02 0.  1.
</event>
<event>
 5    1  0.2089233E-008  0.3841183E+03  0.7957747E-01  0.3433420E+00
         13   -1    0    0    0    0  0.00000000000E+00  0.00000000000E+00  0.14999999963E+04  0.15000000000E+04  0.10566000000E+00 0. -1.
        994   -1    0    0    0    0 -0.00000000000E+00 -0.00000000000E+00  0.11368683772E-12  0.17120000000E+03  0.17120000000E+03 0.  0.
         13    1    1    2    0    0 -0.30214092948E+01  0.10495554062E+02  0.27812519315E+02  0.29880310639E+02  0.10566000000E+00 0. -1.
        994    1    1    2    0    0  0.30867748928E+01 -0.11247480522E+02  0.25173011087E+01  0.17161529886E+03  0.17120000000E+03 0.  0.
        998    1    1    2    0    0 -0.65365598014E-01  0.75192646039E+00  0.14696701759E+04  0.14697043905E+04  0.10000000000E+02 0. -1.
</event>
<event>
 5    1  0.1360042E-008  0.3854486E+03  0.7957747E-01  0.3427772E+00
         13   -1    0    0    0    0  0.00000000000E+00  0.00000000000E+00  0.14999999963E+04  0.15000000000E+04  0.10566000000E+00 0.  1.
        994   -1    0    0    0    0 -0.00000000000E+00 -0.00000000000E+00  0.11368683772E-12  0.17120000000E+03  0.17120000000E+03 0.  0.
         13    1    1    2    0    0  0.12477014598E+02 -0.10581477327E+02  0.96583361757E+02  0.97959177661E+02  0.10566000000E+00 0.  1.
        994    1    1    2    0    0 -0.30372057809E+01  0.10680224996E+02  0.18125540933E+01  0.17156927807E+03  0.17120000000E+03 0.  0.
        998    1    1    2    0    0 -0.94398088173E+01 -0.98747668700E-01  0.14016040804E+04  0.14016715443E+04  0.10000000000E+02 0.  1.
</event>
<event>
 5    1  0.1360042E-008  0.3798101E+03  0.7957747E-01  0.3451986E+00
         13   -1    0    0    0    0  0.00000000000E+00  0.00000000000E+00  0.14999999963E+04  0.15000000000E+04  0.10566000000E+00 0.  1.
        994   -1    0    0    0    0 -0.00000000000E+00 -0.00000000000E+00  0.11368683772E-12  0.17120000000E+03  0.17120000000E+03 0.  0.
         13    1    1    2    0    0  0.12782971309E-01 -0.12627678415E+02  0.17002995608E+02  0.21179505406E+02  0.10566000000E+00 0.  1.
        994    1    1    2    0    0  0.27240876426E+01  0.10183130978E+02  0.46007890798E+01  0.17158590872E+03  0.17120000000E+03 0.  0.
        998    1    1    2    0    0 -0.27368706139E+01  0.24445474364E+01  0.14783962116E+04  0.14784345859E+04  0.10000000000E+02 0.  1.
</event>
<event>
 5    1  0.1360042E-008  0.3859597E+03  0.7957747E-01  0.3425612E+00
         13   -1    0    0    0    0  0.00000000000E+00  0.00000000000E+00  0.14999999963E+04  0.15000000000E+04  0.10566000000E+00 0.  1.
        994   -1    0    0    0    0 -0.00000000000E+00 -0.00000000000E+00  0.11368683772E-12  0.17120000000E+03  0.17120000000E+03 0.  0.
         13    1    1    2    0    0  0.68017521111E+01  0.10235509884E+02  0.70570290516E+02  0.71632440709E+02  0.10566000000E+00 0.  1.
        994    1    1    2    0    0 -0.45295880487E+01  0.30176279529E+01  0.12515198369E+01  0.17129106675E+03  0.17120000000E+03 0.  0.
        998    1    1    2    0    0 -0.22721640624E+01 -0.13253137837E+02  0.14281781859E+04  0.14282764925E+04  0.10000000000E+02 0.  1.
</event>
<event>
 5    1  0.1360042E-008  0.3846546E+03  0.7957747E-01  0.3431139E+00
         13   -1    0    0    0    0  0.00000000000E+00  0.00000000000E+00  0.14999999963E+04  0.15000000000E+04  0.10566000000E+00 0.  1.
        994   -1    0    0    0    0 -0.00000000000E+00 -0.00000000000E+00  0.11368683772E-12  0.17120000000E+03  0.17120000000E+03 0.  0.
         13    1    1    2    0    0 -0.12005315741E+02  0.17844515235E+02  0.11698316029E+03  0.11894379044E+03  0.10566000000E+00 0.  1.
        994    1    1    2    0    0  0.21506657033E+02 -0.15662182241E+02  0.41356580749E+01  0.17330431015E+03  0.17120000000E+03 0.  0.
        998    1    1    2    0    0 -0.95013412919E+01 -0.21823329942E+01  0.13788811779E+04  0.13789518994E+04  0.10000000000E+02 0.  1.
</event>
<event>
 5    1  0.1360042E-008  0.3773861E+03  0.7957747E-01  0.3462620E+00
         13   -1    0    0    0    0  0.00000000000E+00  0.00000000000E+00  0.14999999963E+04  0.15000000000E+04  0.10566000000E+00 0. -1.
        994   -1    0    0    0    0 -0.00000000000E+00 -0.00000000000E+00  0.11368683772E-12  0.17120000000E+03  0.17120000000E+03 0.  0.
         13    1    1    2    0    0 -0.14612294666E+02  0.90707610843E+02  0.55361192416E+03  0.56118407279E+03  0.10566000000E+00 0. -1.
        994    1    1    2    0    0 -0.25982293585E+01  0.20497014515E+02  0.16432377134E+02  0.17322338589E+03  0.17120000000E+03 0.  0.
        998    1    1    2    0    0  0.17210524025E+02 -0.11120462536E+03  0.92995569498E+03  0.93679254132E+03  0.10000000000E+02 0.  1.
</event>
<event>
 5    1  0.1360042E-008  0.3831624E+03  0.7957747E-01  0.3437503E+00
         13   -1    0    0    0    0  0.00000000000E+00  0.00000000000E+00  0.14999999963E+04  0.15000000000E+04  0.10566000000E+00 0. -1.
        994   -1    0    0    0    0 -0.00000000000E+00 -0.00000000000E+00  0.11368683772E-12  0.17120000000E+03  0.17120000000E+03 0.  0.
         13    1    1    2    0    0 -0.22338816284E+02  0.52412531479E+02  0.84310789296E+02  0.10175665347E+03  0.10566000000E+00 0. -1.
        994    1    1    2    0    0 -0.14361139809E+02 -0.45496544187E+02  0.26467133372E+02  0.17968340774E+03  0.17120000000E+03 0.  0.
        998    1    1    2    0    0  0.36699956093E+02 -0.69159872917E+01  0.13892220736E+04  0.13897599388E+04  0.10000000000E+02 0. -1.
</event>
<event>
 5    1  0.1360042E-008  0.4011512E+03  0.7957747E-01  0.3363934E+00
         13   -1    0    0    0    0  0.00000000000E+00  0.00000000000E+00  0.14999999963E+04  0.15000000000E+04  0.10566000000E+00 0.  1.
        994   -1    0    0    0    0 -0.00000000000E+00 -0.00000000000E+00  0.11368683772E-12  0.17120000000E+03  0.17120000000E+03 0.  0.
         13    1    1    2    0    0 -0.22532606948E+02 -0.26755627058E+02  0.98576923849E+01  0.36342361210E+02  0.10566000000E+00 0.  1.
        994    1    1    2    0    0  0.33500561316E+02  0.12168344838E+02  0.33480291454E+02  0.17804697734E+03  0.17120000000E+03 0.  0.
        998    1    1    2    0    0 -0.10967954369E+02  0.14587282220E+02  0.14566620124E+04  0.14568106614E+04  0.10000000000E+02 0.  1.
</event>
<event>
 5    1  0.1360042E-008  0.3858111E+03  0.7957747E-01  0.3426239E+00
         13   -1    0    0    0    0  0.00000000000E+00  0.00000000000E+00  0.14999999963E+04  0.15000000000E+04  0.10566000000E+00 0. -1.
        994   -1    0    0    0    0 -0.00000000000E+00 -0.00000000000E+00  0.11368683772E-12  0.17120000000E+03  0.17120000000E+03 0.  0.
         13    1    1    2    0    0 -0.10990731773E+02 -0.38817060526E+01  0.46518743248E+02  0.47956943858E+02  0.10566000000E+00 0. -1.
        994    1    1    2    0    0  0.39746466672E+02  0.28195574091E+01  0.64531539021E+01  0.17589432825E+03  0.17120000000E+03 0.  0.
        998    1    1    2    0    0 -0.28755734899E+02  0.10621486436E+01  0.14470280991E+04  0.14473487279E+04  0.10000000000E+02 0. -1.
</event>
<event>
 5    1  0.1360042E-008  0.3832165E+03  0.7957747E-01  0.3437272E+00
         13   -1    0    0    0    0  0.00000000000E+00  0.00000000000E+00  0.14999999963E+04  0.15000000000E+04  0.10566000000E+00 0.  1.
        994   -1    0    0    0    0 -0.00000000000E+00 -0.00000000000E+00  0.11368683772E-12  0.17120000000E+03  0.17120000000E+03 0.  0.
         13    1    1    2    0    0 -0.11452272480E+02 -0.38465196304E+01  0.27921499579E+02  0.30423207605E+02  0.10566000000E+00 0.  1.
        994    1    1    2    0    0  0.15126714220E+02 -0.12103540210E+02  0.37606558659E+01  0.17233367547E+03  0.17120000000E+03 0.  0.
        998    1    1    2    0    0 -0.36744417398E+01  0.15950059840E+02  0.14683178408E+04  0.14684431169E+04  0.10000000000E+02 0.  1.
</event>
<event>
 5    1  0.1360042E-008  0.3821517E+03  0.7957747E-01  0.3441843E+00
         13   -1    0    0    0    0  0.00000000000E+00  0.00000000000E+00  0.14999999963E+04  0.15000000000E+04  0.10566000000E+00 0.  1.
        994   -1    0    0    0    0 -0.00000000000E+00 -0.00000000000E+00  0.11368683772E-12  0.17120000000E+03  0.17120000000E+03 0.  0.
         13    1    1    2    0    0 -0.16243910784E+02 -0.47955151942E+02  0.27782910188E+03  0.28240499686E+03  0.10566000000E+00 0.  1.
        994    1    1    2    0    0  0.17746647463E+02  0.70112875137E+02  0.20612189378E+02  0.18698946790E+03  0.17120000000E+03 0.  0.
        998    1    1    2    0    0 -0.15027366789E+01 -0.22157723195E+02  0.12015587050E+04  0.12018055352E+04  0.10000000000E+02 0.  1.
</event>
<event>
 5    1  0.1360042E-008  0.3797737E+03  0.7957747E-01  0.3452144E+00
         13   -1    0    0    0    0  0.00000000000E+00  0.00000000000E+00  0.14999999963E+04  0.15000000000E+04  0.10566000000E+00 0. -1.
        994   -1    0    0    0    0 -0.00000000000E+00 -0.00000000000E+00  0.11368683772E-12  0.17120000000E+03  0.17120000000E+03 0.  0.
         13    1    1    2    0    0 -0.14962973561E+02  0.68942580025E+01  0.30920284302E+02  0.35035646370E+02  0.10566000000E+00 0. -1.
        994    1    1    2    0    0  0.88531087473E+01  0.91879845454E+01  0.47922334254E+01  0.17174167257E+03  0.17120000000E+03 0.  0.
        998    1    1    2    0    0  0.61098648142E+01 -0.16082242548E+02  0.14642874786E+04  0.14644226811E+04  0.10000000000E+02 0. -1.
</event>
<event>
 5    1  0.1360042E-008  0.3943330E+03  0.7957747E-01  0.3391029E+00
         13   -1    0    0    0    0  0.00000000000E+00  0.00000000000E+00  0.14999999963E+04  0.15000000000E+04  0.10566000000E+00 0.  1.
        994   -1    0    0    0    0 -0.00000000000E+00 -0.00000000000E+00  0.11368683772E-12  0.17120000000E+03  0.17120000000E+03 0.  0.
         13    1    1    2    0    0 -0.26469529876E+02  0.39526552003E+01  0.40715362428E+01  0.27071166698E+02  0.10566000000E+00 0.  1.
        994    1    1    2    0    0  0.28682736497E+02 -0.56905778112E+01  0.27712818514E+02  0.17587644060E+03  0.17120000000E+03 0.  0.
        998    1    1    2    0    0 -0.22132066209E+01  0.17379226109E+01  0.14682156415E+04  0.14682523927E+04  0.10000000000E+02 0.  1.
</event>
<event>
 5    1  0.1360042E-008  0.3780493E+03  0.7957747E-01  0.3459697E+00
         13   -1    0    0    0    0  0.00000000000E+00  0.00000000000E+00  0.14999999963E+04  0.15000000000E+04  0.10566000000E+00 0.  1.
        994   -1    0    0    0    0 -0.00000000000E+00 -0.00000000000E+00  0.11368683772E-12  0.17120000000E+03  0.17120000000E+03 0.  0.
         13    1    1    2    0    0  0.26612525559E+02  0.48319692194E+02  0.95432677161E+02  0.11022897171E+03  0.10566000000E+00 0.  1.
        994    1    1    2    0    0 -0.16475419912E+02 -0.29334270349E+02  0.19343107611E+02  0.17554354072E+03  0.17120000000E+03 0.  0.
        998    1    1    2    0    0 -0.10137105647E+02 -0.18985421845E+02  0.13852242115E+04  0.13854274876E+04  0.10000000000E+02 0.  1.
</event>
<event>
 5    1  0.1360042E-008  0.3789975E+03  0.7957747E-01  0.3455535E+00
         13   -1    0    0    0    0  0.00000000000E+00  0.00000000000E+00  0.14999999963E+04  0.15000000000E+04  0.10566000000E+00 0. -1.
        994   -1    0    0    0    0 -0.00000000000E+00 -0.00000000000E+00  0.11368683772E-12  0.17120000000E+03  0.17120000000E+03 0.  0.
         13    1    1    2    0    0 -0.63266022503E+01 -0.15355300100E+02  0.27482867393E+02  0.32111217687E+02  0.10566000000E+00 0. -1.
        994    1    1    2    0    0  0.82511314782E+01  0.13652301901E+02  0.54940104079E+01  0.17202933084E+03  0.17120000000E+03 0.  0.
        998    1    1    2    0    0 -0.19245292278E+01  0.17029981989E+01  0.14670231185E+04  0.14670594515E+04  0.10000000000E+02 0. -1.
</event>
<event>
 5    1  0.1360042E-008  0.3801506E+03  0.7957747E-01  0.3450503E+00
         13   -1    0    0    0    0  0.00000000000E+00  0.00000000000E+00  0.14999999963E+04  0.15000000000E+04  0.10566000000E+00 0. -1.
        994   -1    0    0    0    0 -0.00000000000E+00 -0.00000000000E+00  0.11368683772E-12  0.17120000000E+03  0.17120000000E+03 0.  0.
         13    1    1    2    0    0 -0.37680026202E+01  0.19278486888E+02  0.45523790015E+02  0.49581090366E+02  0.10566000000E+00 0. -1.
        994    1    1    2    0    0  0.22218223646E+01 -0.15840496368E+02  0.49124757106E+01  0.17201578485E+03  0.17120000000E+03 0.  0.
        998    1    1    2    0    0  0.15461802556E+01 -0.34379905203E+01  0.14495637306E+04  0.14496031248E+04  0.10000000000E+02 0. -1.
</event>
<event>
 5    1  0.1360042E-008  0.3860472E+03  0.7957747E-01  0.3425243E+00
         13   -1    0    0    0    0  0.00000000000E+00  0.00000000000E+00  0.14999999963E+04  0.15000000000E+04  0.10566000000E+00 0. -1.
        994   -1    0    0    0    0 -0.00000000000E+00 -0.00000000000E+00  0.11368683772E-12  0.17120000000E+03  0.17120000000E+03 0.  0.
         13    1    1    2    0    0  0.11386081658E+02  0.26433321397E+01  0.64608260771E+02  0.65657205120E+02  0.10566000000E+00 0. -1.
        994    1    1    2    0    0 -0.15647073072E+01 -0.65498648917E+01  0.12597783900E+01  0.17133702484E+03  0.17120000000E+03 0.  0.
        998    1    1    2    0    0 -0.98213743504E+01  0.39065327521E+01  0.14341319571E+04  0.14342057700E+04  0.10000000000E+02 0. -1.
</event>
<event>
 5    1  0.1360042E-008  0.3849771E+03  0.7957747E-01  0.3429769E+00
         13   -1    0    0    0    0  0.00000000000E+00  0.00000000000E+00  0.14999999963E+04  0.15000000000E+04  0.10566000000E+00 0.  1.
        994   -1    0    0    0    0 -0.00000000000E+00 -0.00000000000E+00  0.11368683772E-12  0.17120000000E+03  0.17120000000E+03 0.  0.
         13    1    1    2    0    0  0.10662810733E+01  0.16560890293E+02  0.85845705774E+02  0.87435098253E+02  0.10566000000E+00 0.  1.
        994    1    1    2    0    0  0.74822002921E+01 -0.82207349334E+01  0.20480183003E+01  0.17157271981E+03  0.17120000000E+03 0.  0.
        998    1    1    2    0    0 -0.85484813654E+01 -0.83401553601E+01  0.14121062722E+04  0.14121921819E+04  0.10000000000E+02 0.  1.
</event>
<event>
 5    1  0.1360042E-008  0.3839888E+03  0.7957747E-01  0.3433972E+00
         13   -1    0    0    0    0  0.00000000000E+00  0.00000000000E+00  0.14999999963E+04  0.15000000000E+04  0.10566000000E+00 0. -1.
        994   -1    0    0    0    0 -0.00000000000E+00 -0.00000000000E+00  0.11368683772E-12  0.17120000000E+03  0.17120000000E+03 0.  0.
         13    1    1    2    0    0  0.52196666986E+01 -0.17600621903E+02  0.86752928776E+02  0.88674171138E+02  0.10566000000E+00 0. -1.
        994    1    1    2    0    0  0.56563106070E+01 -0.17740735371E+01  0.22489571760E+01  0.17131736338E+03  0.17120000000E+03 0.  0.
        998    1    1    2    0    0 -0.10875977306E+02  0.19374695441E+02  0.14109981103E+04  0.14112084655E+04  0.10000000000E+02 0. -1.
</event>
<event>
 5    1  0.1360042E-008  0.3858524E+03  0.7957747E-01  0.3426065E+00
         13   -1    0    0    0    0  0.00000000000E+00  0.00000000000E+00  0.14999999963E+04  0.15000000000E+04  0.10566000000E+00 0. -1.
        994   -1    0    0    0    0 -0.00000000000E+00 -0.00000000000E+00  0.11368683772E-12  0.17120000000E+03  0.17120000000E+03 0.  0.
         13    1    1    2    0    0  0.12250198248E+02  0.18249015542E+01  0.64145080189E+02  0.65329932644E+02  0.10566000000E+00 0. -1.
        994    1    1    2    0    0 -0.81760346226E+01 -0.73325092299E+00  0.14285493296E+01  0.17140264278E+03  0.17120000000E+03 0.  0.
        998    1    1    2    0    0 -0.40741636258E+01 -0.10916506312E+01  0.14344263668E+04  0.14344674246E+04  0.10000000000E+02 0. -1.
</event>
<event>
 5    1  0.1360042E-008  0.3841954E+03  0.7957747E-01  0.3433092E+00
         13   -1    0    0    0    0  0.00000000000E+00  0.00000000000E+00  0.14999999963E+04  0.15000000000E+04  0.10566000000E+00 0.  1.
        994   -1    0    0    0    0 -0.00000000000E+00 -0.00000000000E+00  0.11368683772E-12  0.17120000000E+03  0.17120000000E+03 0.  0.
         13    1    1    2    0    0  0.11651426010E+02 -0.18046048711E+02  0.12141350504E+03  0.12329909153E+03  0.10566000000E+00 0.  1.
        994    1    1    2    0    0 -0.38470889010E+01  0.30104606678E+01  0.21088044708E+01  0.17128266119E+03  0.17120000000E+03 0.  0.
        998    1    1    2    0    0 -0.78043371095E+01  0.15035588043E+02  0.13764776868E+04  0.13766182473E+04  0.10000000000E+02 0.  1.
</event>
<event>
 5    1  0.1360042E-008  0.3825504E+03  0.7957747E-01  0.3440128E+00
         13   -1    0    0    0    0  0.00000000000E+00  0.00000000000E+00  0.14999999963E+04  0.15000000000E+04  0.10566000000E+00 0.  1.
        994   -1    0    0    0    0 -0.00000000000E+00 -0.00000000000E+00  0.11368683772E-12  0.17120000000E+03  0.17120000000E+03 0.  0.
         13    1    1    2    0    0  0.10434341913E+02 -0.42717609218E+01  0.21089120307E+02  0.23914129545E+02  0.10566000000E+00 0.  1.
        994    1    1    2    0    0 -0.80994971698E+01  0.59150126051E+01  0.31847427565E+01  0.17152309412E+03  0.17120000000E+03 0.  0.
        998    1    1    2    0    0 -0.23348447428E+01 -0.16432516833E+01  0.14757261332E+04  0.14757627763E+04  0.10000000000E+02 0.  1.
</event>
<event>
 5    1  0.1360042E-008  0.3859678E+03  0.7957747E-01  0.3425578E+00
         13   -1    0    0    0    0  0.00000000000E+00  0.00000000000E+00  0.14999999963E+04  0.15000000000E+04  0.10566000000E+00 0.  1.
        994   -1    0    0    0    0 -0.00000000000E+00 -0.00000000000E+00  0.11368683772E-12  0.17120000000E+03  0.17120000000E+03 0.  0.
         13    1    1    2    0    0 -0.24233153819E+03  0.61109679121E+02  0.10727818762E+04  0.11015080265E+04  0.10566000000E+00 0.  1.
        994    1    1    2    0    0  0.25676276838E+03 -0.65188487393E+02  0.28119242114E+03  0.42255801474E+03  0.17120000000E+03 0.  0.
        998    1    1    2    0    0 -0.14431230193E+02  0.40788082721E+01  0.14602569893E+03  0.14713395879E+03  0.10000000000E+02 0. -1.
</event>
<event>
 5    1  0.1360042E-008  0.3860445E+03  0.7957747E-01  0.3425254E+00
         13   -1    0    0    0    0  0.00000000000E+00  0.00000000000E+00  0.14999999963E+04  0.15000000000E+04  0.10566000000E+00 0. -1.
        994   -1    0    0    0    0 -0.00000000000E+00 -0.00000000000E+00  0.11368683772E-12  0.17120000000E+03  0.17120000000E+03 0.  0.
         13    1    1    2    0    0  0.10435178831E+02  0.56076989149E+01  0.63197473290E+02  0.64298297323E+02  0.10566000000E+00 0. -1.
        994    1    1    2    0    0 -0.94362264282E+01 -0.21227529642E+01  0.14191001642E+01  0.17147886836E+03  0.17120000000E+03 0.  0.
        998    1    1    2    0    0 -0.99895240327E+00 -0.34849459507E+01  0.14353834228E+04  0.14354228343E+04  0.10000000000E+02 0. -1.
</event>
<event>
 5    1  0.1360042E-008  0.3826698E+03  0.7957747E-01  0.3439615E+00
         13   -1    0    0    0    0  0.00000000000E+00  0.00000000000E+00  0.14999999963E+04  0.15000000000E+04  0.10566000000E+00 0. -1.
        994   -1    0    0    0    0 -0.00000000000E+00 -0.00000000000E+00  0.11368683772E-12  0.17120000000E+03  0.17120000000E+03 0.  0.
         13    1    1    2    0    0  0.21398562272E+01 -0.24114971315E+02  0.11841735946E+03  0.12086684000E+03  0.10566000000E+00 0. -1.
        994    1    1    2    0    0 -0.10463784685E+01 -0.40968585192E+01  0.28507091118E+01  0.17127593439E+03  0.17120000000E+03 0.  0.
        998    1    1    2    0    0 -0.10934777587E+01  0.28211829834E+02  0.13787319277E+04  0.13790572256E+04  0.10000000000E+02 0. -1.
</event>
<event>
 5    1  0.1360042E-008  0.3842800E+03  0.7957747E-01  0.3432732E+00
         13   -1    0    0    0    0  0.00000000000E+00  0.00000000000E+00  0.14999999963E+04  0.15000000000E+04  0.10566000000E+00 0. -1.
        994   -1    0    0    0    0 -0.00000000000E+00 -0.00000000000E+00  0.11368683772E-12  0.17120000000E+03  0.17120000000E+03 0.  0.
         13    1    1    2    0    0 -0.94037918208E+01 -0.12050788005E+02  0.57919474801E+02  0.59902667031E+02  0.10566000000E+00 0. -1.
        994    1    1    2    0    0  0.12487813459E+02  0.51052785496E+01  0.25882313065E+01  0.17175024977E+03  0.17120000000E+03 0.  0.
        998    1    1    2    0    0 -0.30840216378E+01  0.69455094552E+01  0.14394922902E+04  0.14395470832E+04  0.10000000000E+02 0. -1.
</event>
<event>
 5    1  0.1360042E-008  0.3849420E+03  0.7957747E-01  0.3429918E+00
         13   -1    0    0    0    0  0.00000000000E+00  0.00000000000E+00  0.14999999963E+04  0.15000000000E+04  0.10566000000E+00 0.  1.
        994   -1    0    0    0    0 -0.00000000000E+00 -0.00000000000E+00  0.11368683772E-12  0.17120000000E+03  0.17120000000E+03 0.  0.
         13    1    1    2    0    0 -0.45322466846E+01  0.91797046174E+01  0.33260031973E+02  0.34800131146E+02  0.10566000000E+00 0.  1.
        994    1    1    2    0    0  0.30059706119E+01  0.79600358703E+01  0.18971017420E+01  0.17142181024E+03  0.17120000000E+03 0.  0.
        998    1    1    2    0    0  0.15262760728E+01 -0.17139740488E+02  0.14648428626E+04  0.14649780586E+04  0.10000000000E+02 0.  1.
</event>
<event>
 5    1  0.1360042E-008  0.3838417E+03  0.7957747E-01  0.3434600E+00
         13   -1    0    0    0    0  0.00000000000E+00  0.00000000000E+00  0.14999999963E+04  0.15000000000E+04  0.10566000000E+00 0.  1.
        994   -1    0    0    0    0 -0.00000000000E+00 -0.00000000000E+00  0.11368683772E-12  0.17120000000E+03  0.17120000000E+03 0.  0.
         13    1    1    2    0    0  0.40342817762E+01  0.12248860225E+02  0.37977820414E+02  0.40107804897E+02  0.10566000000E+00 0.  1.
        994    1    1    2    0    0 -0.40998801797E+01 -0.21295609237E+01  0.22767660911E+01  0.17127745827E+03  0.17120000000E+03 0.  0.
        998    1    1    2    0    0  0.65598403502E-01 -0.10119299301E+02  0.14597454098E+04  0.14598147368E+04  0.10000000000E+02 0.  1.
</event>
<event>
 5    1  0.1360042E-008  0.3701245E+03  0.7957747E-01  0.3495319E+00
         13   -1    0    0    0    0  0.00000000000E+00  0.00000000000E+00  0.14999999963E+04  0.15000000000E+04  0.10566000000E+00 0.  1.
        994   -1    0    0    0    0 -0.00000000000E+00 -0.00000000000E+00  0.11368683772E-12  0.17120000000E+03  0.17120000000E+03 0.  0.
         13    1    1    2    0    0  0.47563353808E+02  0.56696481423E+01  0.11384376902E+03  0.12351045480E+03  0.10566000000E+00 0.  1.
        994    1    1    2    0    0 -0.44388152606E+02 -0.15165073529E+02  0.16847282005E+02  0.17830748290E+03  0.17120000000E+03 0.  0.
        998    1    1    2    0    0 -0.31752012021E+01  0.94954253864E+01  0.13693089453E+04  0.13693820623E+04  0.10000000000E+02 0.  1.
</event>
<event>
 5    1  0.1360042E-008  0.3819408E+03  0.7957747E-01  0.3442751E+00
         13   -1    0    0    0    0  0.00000000000E+00  0.00000000000E+00  0.14999999963E+04  0.15000000000E+04  0.10566000000E+00 0.  1.
        994   -1    0    0    0    0 -0.00000000000E+00 -0.00000000000E+00  0.11368683772E-12  0.17120000000E+03  0.17120000000E+03 0.  0.
         13    1    1    2    0    0 -0.14101620472E+02  0.37289274167E+00  0.29847029946E+02  0.33012893081E+02  0.10566000000E+00 0.  1.
        994    1    1    2    0    0  0.14495671429E+02 -0.38986788092E+01  0.39054342957E+01  0.17190118267E+03  0.17120000000E+03 0.  0.
        998    1    1    2    0    0 -0.39405095687E+00  0.35257860675E+01  0.14662475320E+04  0.14662859242E+04  0.10000000000E+02 0.  1.
</event>
<event>
 5    1  0.1360042E-008  0.3743748E+03  0.7957747E-01  0.3476024E+00
         13   -1    0    0    0    0  0.00000000000E+00  0.00000000000E+00  0.14999999963E+04  0.15000000000E+04  0.10566000000E+00 0. -1.
        994   -1    0    0    0    0 -0.00000000000E+00 -0.00000000000E+00  0.11368683772E-12  0.17120000000E+03  0.17120000000E+03 0.  0.
         13    1    1    2    0    0  0.15216468867E+01 -0.14640057855E+02  0.12245500876E+02  0.19147066590E+02  0.10566000000E+00 0. -1.
        994    1    1    2    0    0 -0.24755398448E+01  0.14794900947E+02  0.77670065216E+01  0.17203134535E+03  0.17120000000E+03 0.  0.
        998    1    1    2    0    0  0.95389295804E+00 -0.15484309144E+00  0.14799874889E+04  0.14800215881E+04  0.10000000000E+02 0. -1.
</event>
<event>
 5    1  0.1360042E-008  0.3853797E+03  0.7957747E-01  0.3428063E+00
         13   -1    0    0    0    0  0.00000000000E+00  0.00000000000E+00  0.14999999963E+04  0.15000000000E+04  0.10566000000E+00 0.  1.
        994   -1    0    0    0    0 -0.00000000000E+00 -0.00000000000E+00  0.11368683772E-12  0.17120000000E+03  0.17120000000E+03 0.  0.
         13    1    1    2    0    0 -0.13178605241E+02  0.22013496138E+01  0.63453496639E+02  0.64845038176E+02  0.10566000000E+00 0.  1.
        994    1    1    2    0    0  0.15162907443E+01 -0.35143142745E+02  0.55164862814E+01  0.17486340738E+03  0.17120000000E+03 0.  0.
        998    1    1    2    0    0  0.11662314497E+02  0.32941793131E+02  0.14310300134E+04  0.14314915544E+04  0.10000000000E+02 0.  1.
</event>
<event>
 5    1  0.1360042E-008  0.3842188E+03  0.7957747E-01  0.3432992E+00
         13   -1    0    0    0    0  0.00000000000E+00  0.00000000000E+00  0.14999999963E+04  0.15000000000E+04  0.10566000000E+00 0. -1.
        994   -1    0    0    0    0 -0.00000000000E+00 -0.00000000000E+00  0.11368683772E-12  0.17120000000E+03  0.17120000000E+03 0.  0.
         13    1    1    2    0    0  0.63184322250E+01 -0.98559918256E+01  0.34336599637E+02  0.36277767287E+02  0.10566000000E+00 0. -1.
        994    1    1    2    0    0  0.17084078985E+01  0.34165372698E+01  0.20665806999E+01  0.17125507917E+03  0.17120000000E+03 0.  0.
        998    1    1    2    0    0 -0.80268401236E+01  0.64394545558E+01  0.14635968159E+04  0.14636671535E+04  0.10000000000E+02 0. -1.
</event>
<event>
 5    1  0.1360042E-008  0.3826058E+03  0.7957747E-01  0.3439890E+00
         13   -1    0    0    0    0  0.00000000000E+00  0.00000000000E+00  0.14999999963E+04  0.15000000000E+04  0.10566000000E+00 0. -1.
        994   -1    0    0    0    0 -0.00000000000E+00 -0.00000000000E+00  0.11368683772E-12  0.17120000000E+03  0.17120000000E+03 0.  0.
         13    1    1    2    0    0 -0.98446159643E+01 -0.16296108884E+02  0.59238606155E+02  0.62223012234E+02  0.10566000000E+00 0. -1.
        994    1    1    2    0    0  0.18470132694E+02  0.19789985476E+02  0.52560153467E+01  0.17340661759E+03  0.17120000000E+03 0.  0.
        998    1    1    2    0    0 -0.86255167293E+01 -0.34938765923E+01  0.14355053748E+04  0.14355703702E+04  0.10000000000E+02 0. -1.
</event>
<event>
 5    1  0.1592385E-008  0.3862291E+03  0.7957747E-01  0.3424476E+00
         13   -1    0    0    0    0  0.00000000000E+00  0.00000000000E+00  0.14999999963E+04  0.15000000000E+04  0.10566000000E+00 0. -1.
        994   -1    0    0    0    0 -0.00000000000E+00 -0.00000000000E+00  0.11368683772E-12  0.17120000000E+03  0.17120000000E+03 0.  0.
         13    1    1    2    0    0 -0.26980358180E+01  0.11370957199E+02  0.67085782315E+02  0.68096192388E+02  0.10566000000E+00 0. -1.
        994    1    1    2    0    0  0.54406871326E+01 -0.83136692345E+01  0.13445653648E+01  0.17149334106E+03  0.17120000000E+03 0.  0.
        998    1    1    2    0    0 -0.27426513145E+01 -0.30572879643E+01  0.14315696486E+04  0.14316104665E+04  0.10000000000E+02 0. -1.
</event>
<event>
 5    1  0.1360042E-008  0.3835587E+03  0.7957747E-01  0.3435808E+00
         13   -1    0    0    0    0  0.00000000000E+00  0.00000000000E+00  0.14999999963E+04  0.15000000000E+04  0.10566000000E+00 0. -1.
        994   -1    0    0    0    0 -0.00000000000E+00 -0.00000000000E+00  0.11368683772E-12  0.17120000000E+03  0.17120000000E+03 0.  0.
         13    1    1    2    0    0 -0.89181601184E+01  0.14237846494E+02  0.64033155915E+02  0.66200499040E+02  0.10566000000E+00 0. -1.
        994    1    1    2    0    0 -0.60922408141E+01 -0.76801271310E+00  0.24720009325E+01  0.17132791959E+03  0.17120000000E+03 0.  0.
        998    1    1    2    0    0  0.15010400932E+02 -0.13469833781E+02  0.14334948394E+04  0.14336715814E+04  0.10000000000E+02 0. -1.
</event>
<event>
 5    1  0.1360042E-008  0.3710921E+03  0.7957747E-01  0.3490887E+00
         13   -1    0    0    0    0  0.00000000000E+00  0.00000000000E+00  0.14999999963E+04  0.15000000000E+04  0.10566000000E+00 0.  1.
        994   -1    0    0    0    0 -0.00000000000E+00 -0.00000000000E+00  0.11368683772E-12  0.17120000000E+03  0.17120000000E+03 0.  0.
         13    1    1    2    0    0  0.11662017217E+02 -0.45351278516E+01  0.13796273063E+01  0.12589065324E+02  0.10566000000E+00 0.  1.
        994    1    1    2    0    0 -0.18799586703E+02  0.30401145183E+01  0.12791177425E+02  0.17273019706E+03  0.17120000000E+03 0.  0.
        998    1    1    2    0    0  0.71375694857E+01  0.14950133333E+01  0.14858291915E+04  0.14858807376E+04  0.10000000000E+02 0.  1.
</event>
<event>
 5    1  0.1360042E-008  0.3810192E+03  0.7957747E-01  0.3446733E+00
         13   -1    0    0    0    0  0.00000000000E+00  0.00000000000E+00  0.14999999963E+04  0.15000000000E+04  0.10566000000E+00 0. -1.
        994   -1    0    0    0    0 -0.00000000000E+00 -0.00000000000E+00  0.11368683772E-12  0.17120000000E+03  0.17120000000E+03 0.  0.
         13    1    1    2    0    0  0.28805116416E+01 -0.40817673051E+02  0.19409589104E+03  0.19836230958E+03  0.10566000000E+00 0. -1.
        994    1    1    2    0    0 -0.47610970362E+01  0.46077713888E+02  0.10802035670E+02  0.17768496767E+03  0.17120000000E+03 0.  0.
        998    1    1    2    0    0  0.18805853945E+01 -0.52600408370E+01  0.12951020696E+04  0.12951527227E+04  0.10000000000E+02 0. -1.
</event>
<event>
 5    1  0.1360042E-008  0.3804201E+03  0.7957747E-01  0.3449331E+00
         13   -1    0    0    0    0  0.00000000000E+00  0.00000000000E+00  0.14999999963E+04  0.15000000000E+04  0.10566000000E+00 0. -1.
        994   -1    0    0    0    0 -0.00000000000E+00 -0.00000000000E+00  0.11368683772E-12  0.17120000000E+03  0.17120000000E+03 0.  0.
         13    1    1    2    0    0  0.71428235154E+01  0.31857837136E+02  0.14701091651E+03  0.15059270384E+03  0.10566000000E+00 0. -1.
        994    1    1    2    0    0 -0.46365653491E+01 -0.48398811301E+01  0.40712311081E+01  0.17137951193E+03  0.17120000000E+03 0.  0.
        998    1    1    2    0    0 -0.25062581664E+01 -0.27017956006E+02  0.13489178487E+04  0.13492277842E+04  0.10000000000E+02 0. -1.
</event>
<event>
 5    1  0.1360042E-008  0.3760600E+03  0.7957747E-01  0.3468496E+00
         13   -1    0    0    0    0  0.00000000000E+00  0.00000000000E+00  0.14999999963E+04  0.15000000000E+04  0.10566000000E+00 0. -1.
        994   -1    0    0    0    0 -0.00000000000E+00 -0.00000000000E+00  0.11368683772E-12  0.17120000000E+03  0.17120000000E+03 0.  0.
         13    1    1    2    0    0  0.11019970206E+02  0.45883329524E+00 -0.23518287905E+01  0.11277966750E+02  0.10566000000E+00 0. -1.
        994    1    1    2    0    0 -0.14166053508E+02  0.70954186507E+00  0.14898594545E+02  0.17243140271E+03  0.17120000000E+03 0.  0.
        998    1    1    2    0    0  0.31460833020E+01 -0.11683751603E+01  0.14874532305E+04  0.14874906305E+04  0.10000000000E+02 0. -1.
</event>
<event>
 5    1  0.1360042E-008  0.3710667E+03  0.7957747E-01  0.3491003E+00
         13   -1    0    0    0    0  0.00000000000E+00  0.00000000000E+00  0.14999999963E+04  0.15000000000E+04  0.10566000000E+00 0. -1.
        994   -1    0    0    0    0 -0.00000000000E+00 -0.00000000000E+00  0.11368683772E-12  0.17120000000E+03  0.17120000000E+03 0.  0.
         13    1    1    2    0    0 -0.23905765211E+02 -0.35575356941E+02  0.95581084136E+02  0.10475135532E+03  0.10566000000E+00 0. -1.
        994    1    1    2    0    0  0.24091253092E+02  0.37984383487E+02  0.15714870457E+02  0.17770649684E+03  0.17120000000E+03 0.  0.
        998    1    1    2    0    0 -0.18548788129E+00 -0.24090265461E+01  0.13887040417E+04  0.13887421478E+04  0.10000000000E+02 0. -1.
</event>
<event>
 5    1  0.1360042E-008  0.3843424E+03  0.7957747E-01  0.3432466E+00
         13   -1    0    0    0    0  0.00000000000E+00  0.00000000000E+00  0.14999999963E+04  0.15000000000E+04  0.10566000000E+00 0.  1.
        994   -1    0    0    0    0 -0.00000000000E+00 -0.00000000000E+00  0.11368683772E-12  0.17120000000E+03  0.17120000000E+03 0.  0.
         13    1    1    2    0    0 -0.52449962624E+01  0.10963454724E+02  0.36813650244E+02  0.38768071059E+02  0.10566000000E+00 0.  1.
        994    1    1    2    0    0  0.18553694051E+01 -0.11646213550E+02  0.24154369699E+01  0.17162269961E+03  0.17120000000E+03 0.  0.
        998    1    1    2    0    0  0.33896268573E+01  0.68275882522E+00  0.14607709091E+04  0.14608092293E+04  0.10000000000E+02 0.  1.
</event>
<event>
 5    1  0.1360042E-008  0.3841321E+03  0.7957747E-01  0.3433361E+00
         13   -1    0    0    0    0  0.00000000000E+00  0.00000000000E+00  0.14999999963E+04  0.15000000000E+04  0.10566000000E+00 0. -1.
        994   -1    0    0    0    0 -0.00000000000E+00 -0.00000000000E+00  0.11368683772E-12  0.17120000000E+03  0.17120000000E+03 0.  0.
         13    1    1    2    0    0  0.22533303011E+02  0.54163159372E+01  0.12145136179E+03  0.12364275421E+03  0.10566000000E+00 0. -1.
        994    1    1    2    0    0 -0.19790751752E+02 -0.16936122590E+02  0.43025108386E+01  0.17322372154E+03  0.17120000000E+03 0.  0.
        998    1    1    2    0    0 -0.27425512586E+01  0.11519806653E+02  0.13742461236E+04  0.13743335243E+04  0.10000000000E+02 0. -1.
</event>
<event>
 5    1  0.1360042E-008  0.3856492E+03  0.7957747E-01  0.3426923E+00
         13   -1    0    0    0    0  0.00000000000E+00  0.00000000000E+00  0.14999999963E+04  0.15000000000E+04  0.10566000000E+00 0.  1.
        994   -1    0    0    0    0 -0.00000000000E+00 -0.00000000000E+00  0.11368683772E-12  0.17120000000E+03  0.17120000000E+03 0.  0.
         13    1    1    2    0    0 -0.18763085540E+03  0.87288105947E+02  0.12058995594E+04  0.12235269960E+04  0.10566000000E+00 0.  1.
        994    1    1    2    0    0  0.19052860946E+03 -0.92595174650E+02  0.16584684139E+03  0.31888811861E+03  0.17120000000E+03 0.  0.
        998    1    1    2    0    0 -0.28977540612E+01  0.53070687036E+01  0.12825359544E+03  0.12878488538E+03  0.10000000000E+02 0.  1.
</event>
<event>
 5    1  0.1360042E-008  0.3825162E+03  0.7957747E-01  0.3440275E+00
         13   -1    0    0    0    0  0.00000000000E+00  0.00000000000E+00  0.14999999963E+04  0.15000000000E+04  0.10566000000E+00 0. -1.
        994   -1    0    0    0    0 -0.00000000000E+00 -0.00000000000E+00  0.11368683772E-12  0.17120000000E+03  0.17120000000E+03 0.  0.
         13    1    1    2    0    0  0.62261654943E+00 -0.21283679131E+02  0.82517049268E+02  0.85220051823E+02  0.10566000000E+00 0. -1.
        994    1    1    2    0    0 -0.52890000194E+01  0.34907295295E+01  0.30014829696E+01  0.17134353683E+03  0.17120000000E+03 0.  0.
        998    1    1    2    0    0  0.46663834700E+01  0.17792949602E+02  0.14144814640E+04  0.14146364113E+04  0.10000000000E+02 0. -1.
</event>
<event>
 5    1  0.1360042E-008  0.3851190E+03  0.7957747E-01  0.3429168E+00
         13   -1    0    0    0    0  0.00000000000E+00  0.00000000000E+00  0.14999999963E+04  0.15000000000E+04  0.10566000000E+00 0. -1.
        994   -1    0    0    0    0 -0.00000000000E+00 -0.00000000000E+00  0.11368683772E-12  0.17120000000E+03  0.17120000000E+03 0.  0.
         13    1    1    2    0    0 -0.76383957820E+01 -0.75336364835E+01  0.35875856299E+02  0.37445814159E+02  0.10566000000E+00 0. -1.
        994    1    1    2    0    0  0.92968855186E+01  0.61562876984E+01  0.19798981524E+01  0.17157415876E+03  0.17120000000E+03 0.  0.
        998    1    1    2    0    0 -0.16584897366E+01  0.13773487851E+01  0.14621442418E+04  0.14621800271E+04  0.10000000000E+02 0. -1.
</event>
<event>
 5    1  0.1360042E-008  0.3857913E+03  0.7957747E-01  0.3426323E+00
         13   -1    0    0    0    0  0.00000000000E+00  0.00000000000E+00  0.14999999963E+04  0.15000000000E+04  0.10566000000E+00 0. -1.
        994   -1    0    0    0    0 -0.00000000000E+00 -0.00000000000E+00  0.11368683772E-12  0.17120000000E+03  0.17120000000E+03 0.  0.
         13    1    1    2    0    0  0.21108726579E+01 -0.11694576940E+02  0.58318842450E+02  0.59517371094E+02  0.10566000000E+00 0. -1.
        994    1    1    2    0    0 -0.51764065422E+01  0.51712933777E+01  0.14133917978E+01  0.17136211698E+03  0.17120000000E+03 0.  0.
        998    1    1    2    0    0  0.30655338842E+01  0.65232835623E+01  0.14402677620E+04  0.14403205119E+04  0.10000000000E+02 0. -1.
</event>
<event>
 5    1  0.1360042E-008  0.3734503E+03  0.7957747E-01  0.3480183E+00
         13   -1    0    0    0    0  0.00000000000E+00  0.00000000000E+00  0.14999999963E+04  0.15000000000E+04  0.10566000000E+00 0. -1.
        994   -1    0    0    0    0 -0.00000000000E+00 -0.00000000000E+00  0.11368683772E-12  0.17120000000E+03  0.17120000000E+03 0.  0.
         13    1    1    2    0    0  0.66157960773E+02  0.29032109562E+02  0.22368961627E+03  0.23506763868E+03  0.10566000000E+00 0. -1.
        994    1    1    2    0    0 -0.10849575042E+02 -0.28212266996E+02  0.16014917901E+02  0.17458397087E+03  0.17120000000E+03 0.  0.
        998    1    1    2    0    0 -0.55308385732E+02 -0.81984256566E+00  0.12602954621E+04  0.12615483905E+04  0.10000000000E+02 0. -1.
</event>
<event>
 5    1  0.1360042E-008  0.3771236E+03  0.7957747E-01  0.3463779E+00
         13   -1    0    0    0    0  0.00000000000E+00  0.00000000000E+00  0.14999999963E+04  0.15000000000E+04  0.10566000000E+00 0.  1.
        994   -1    0    0    0    0 -0.00000000000E+00 -0.00000000000E+00  0.11368683772E-12  0.17120000000E+03  0.17120000000E+03 0.  0.
         13    1    1    2    0    0 -0.80235302593E+02 -0.19615107735E+02  0.42522491369E+03  0.43317282304E+03  0.10566000000E+00 0.  1.
        994    1    1    2    0    0  0.80950074684E+02  0.23955064410E+02  0.30036459718E+02  0.19323143796E+03  0.17120000000E+03 0.  0.
        998    1    1    2    0    0 -0.71477209072E+00 -0.43399566753E+01  0.10447386229E+04  0.10447957390E+04  0.10000000000E+02 0.  1.
</event>
<event>
 5    1  0.1360042E-008  0.3015729E+03  0.7957747E-01  0.3884853E+00
         13   -1    0    0    0    0  0.00000000000E+00  0.00000000000E+00  0.14999999963E+04  0.15000000000E+04  0.10566000000E+00 0. -1.
        994   -1    0    0    0    0 -0.00000000000E+00 -0.00000000000E+00  0.11368683772E-12  0.17120000000E+03  0.17120000000E+03 0.  0.
         13    1    1    2    0    0  0.58971064765E+02  0.17066126672E+03  0.66398919833E+03  0.68810211531E+03  0.10566000000E+00 0. -1.
        994    1    1    2    0    0 -0.26151078857E+02 -0.18145518999E+03  0.14217013446E+03  0.28832560072E+03  0.17120000000E+03 0.  0.
        998    1    1    2    0    0 -0.32819985909E+02  0.10793923264E+02  0.69384066349E+03  0.69477228397E+03  0.10000000000E+02 0. -1.
</event>
<event>
 5    1  0.1360042E-008  0.3801665E+03  0.7957747E-01  0.3450434E+00
         13   -1    0    0    0    0  0.00000000000E+00  0.00000000000E+00  0.14999999963E+04  0.15000000000E+04  0.10566000000E+00 0. -1.
        994   -1    0    0    0    0 -0.00000000000E+00 -0.00000000000E+00  0.11368683772E-12  0.17120000000E+03  0.17120000000E+03 0.  0.
         13    1    1    2    0    0 -0.38890716492E+02 -0.23875525733E+01  0.21465610195E+03  0.21816379513E+03  0.10566000000E+00 0. -1.
        994    1    1    2    0    0  0.10085756308E+02 -0.41667738551E+02  0.10214290373E+02  0.17678148841E+03  0.17120000000E+03 0.  0.
        998    1    1    2    0    0  0.28804960184E+02  0.44055291124E+02  0.12751296040E+04  0.12762547165E+04  0.10000000000E+02 0. -1.
</event>
<event>
 5    1  0.1360042E-008  0.3712464E+03  0.7957747E-01  0.3490182E+00
         13   -1    0    0    0    0  0.00000000000E+00  0.00000000000E+00  0.14999999963E+04  0.15000000000E+04  0.10566000000E+00 0.  1.
        994   -1    0    0    0    0 -0.00000000000E+00 -0.00000000000E+00  0.11368683772E-12  0.17120000000E+03  0.17120000000E+03 0.  0.
         13    1    1    2    0    0  0.26442712593E+02  0.29699764180E+02  0.88689563728E+02  0.97196414131E+02  0.10566000000E+00 0.  1.
        994    1    1    2    0    0 -0.47355746471E+01 -0.29175565828E+02  0.11632775560E+02  0.17412179868E+03  0.17120000000E+03 0.  0.
        998    1    1    2    0    0 -0.21707137946E+02 -0.52419835217E+00  0.13996776570E+04  0.13998817872E+04  0.10000000000E+02 0.  1.
</event>
<event>
 5    1  0.1360042E-008  0.3845354E+03  0.7957747E-01  0.3431645E+00
         13   -1    0    0    0    0  0.00000000000E+00  0.00000000000E+00  0.14999999963E+04  0.15000000000E+04  0.10566000000E+00 0.  1.
        994   -1    0    0    0    0 -0.00000000000E+00 -0.00000000000E+00  0.11368683772E-12  0.17120000000E+03  0.17120000000E+03 0.  0.
         13    1    1    2    0    0 -0.14176796349E+02  0.67169446065E+01  0.67465753093E+02  0.69265705107E+02  0.10566000000E+00 0.  1.
        994    1    1    2    0    0  0.39408422738E+01 -0.67605793020E+01  0.20626849189E+01  0.17139116179E+03  0.17120000000E+03 0.  0.
        998    1    1    2    0    0  0.10235954075E+02  0.43634695482E-01  0.14304715583E+04  0.14305431331E+04  0.10000000000E+02 0.  1.
</event>
<event>
 5    1  0.1360042E-008  0.3831607E+03  0.7957747E-01  0.3437510E+00
         13   -1    0    0    0    0  0.00000000000E+00  0.00000000000E+00  0.14999999963E+04  0.15000000000E+04  0.10566000000E+00 0. -1.
        994   -1    0    0    0    0 -0.00000000000E+00 -0.00000000000E+00  0.11368683772E-12  0.17120000000E+03  0.17120000000E+03 0.  0.
         13    1    1    2    0    0  0.21493229145E+02 -0.18162409351E+01  0.93506862965E+02  0.95962504217E+02  0.10566000000E+00 0. -1.
        994    1    1    2    0    0 -0.82530975796E+01  0.37813792004E+01  0.28187666837E+01  0.17146369264E+03  0.17120000000E+03 0.  0.
        998    1    1    2    0    0 -0.13240131565E+02 -0.19651382653E+01  0.14036743666E+04  0.14037738031E+04  0.10000000000E+02 0. -1.
</event>
<event>
 5    1  0.1360042E-008  0.3855555E+03  0.7957747E-01  0.3427320E+00
         13   -1    0    0    0    0  0.00000000000E+00  0.00000000000E+00  0.14999999963E+04  0.15000000000E+04  0.10566000000E+00 0.  1.
        994   -1    0    0    0    0 -0.00000000000E+00 -0.00000000000E+00  0.11368683772E-12  0.17120000000E+03  0.17120000000E+03 0.  0.
         13    1    1    2    0    0  0.10477428922E+02 -0.97714056564E+01  0.77123628767E+02  0.78443114189E+02  0.10566000000E+00 0.  1.
        994    1    1    2    0    0 -0.57045031848E+01  0.53134465921E+01  0.15541133872E+01  0.17138444894E+03  0.17120000000E+03 0.  0.
        998    1    1    2    0    0 -0.47729257375E+01  0.44579590643E+01  0.14213222541E+04  0.14213724369E+04  0.10000000000E+02 0.  1.
</event>
<event>
 5    1  0.1360042E-008  0.3756552E+03  0.7957747E-01  0.3470298E+00
         13   -1    0    0    0    0  0.00000000000E+00  0.00000000000E+00  0.14999999963E+04  0.15000000000E+04  0.10566000000E+00 0.  1.
        994   -1    0    0    0    0 -0.00000000000E+00 -0.00000000000E+00  0.11368683772E-12  0.17120000000E+03  0.17120000000E+03 0.  0.
         13    1    1    2    0    0 -0.50959128609E+02  0.49334478067E+02  0.31322095629E+03  0.32115121382E+03  0.10566000000E+00 0.  1.
        994    1    1    2    0    0  0.47627625699E+02 -0.52247754434E+02  0.23488259017E+02  0.18670660643E+03  0.17120000000E+03 0.  0.
        998    1    1    2    0    0  0.33315029105E+01  0.29132763678E+01  0.11632907810E+04  0.11633421798E+04  0.10000000000E+02 0.  0.
</event>
<event>
 5    1  0.1360042E-008  0.3836435E+03  0.7957747E-01  0.3435446E+00
         13   -1    0    0    0    0  0.00000000000E+00  0.00000000000E+00  0.14999999963E+04  0.15000000000E+04  0.10566000000E+00 0.  1.
        994   -1    0    0    0    0 -0.00000000000E+00 -0.00000000000E+00  0.11368683772E-12  0.17120000000E+03  0.17120000000E+03 0.  0.
         13    1    1    2    0    0 -0.36334123500E+01  0.13050929857E+02  0.38668918239E+02  0.40973465283E+02  0.10566000000E+00 0.  1.
        994    1    1    2    0    0  0.38335348219E+01 -0.11537669363E+02  0.27935112695E+01  0.17165388871E+03  0.17120000000E+03 0.  0.
        998    1    1    2    0    0 -0.20012247195E+00 -0.15132604944E+01  0.14585375668E+04  0.14585726460E+04  0.10000000000E+02 0.  1.
</event>
<event>
 5    1  0.1360042E-008  0.3787584E+03  0.7957747E-01  0.3456582E+00
         13   -1    0    0    0    0  0.00000000000E+00  0.00000000000E+00  0.14999999963E+04  0.15000000000E+04  0.10566000000E+00 0. -1.
        994   -1    0    0    0    0 -0.00000000000E+00 -0.00000000000E+00  0.11368683772E-12  0.17120000000E+03  0.17120000000E+03 0.  0.
         13    1    1    2    0    0  0.44949006004E+02 -0.26143618060E+02  0.21838228297E+03  0.22448771589E+03  0.10566000000E+00 0. -1.
        994    1    1    2    0    0 -0.61000137883E+02  0.27387121174E+02  0.19918707568E+02  0.18487094455E+03  0.17120000000E+03 0.  0.
        998    1    1    2    0    0  0.16051131879E+02 -0.12435031141E+01  0.12616990057E+04  0.12618413396E+04  0.10000000000E+02 0.  1.
</event>
<event>
 5    1  0.1360042E-008  0.3810756E+03  0.7957747E-01  0.3446488E+00
         13   -1    0    0    0    0  0.00000000000E+00  0.00000000000E+00  0.14999999963E+04  0.15000000000E+04  0.10566000000E+00 0. -1.
        994   -1    0    0    0    0 -0.00000000000E+00 -0.00000000000E+00  0.11368683772E-12  0.17120000000E+03  0.17120000000E+03 0.  0.
         13    1    1    2    0    0 -0.10293360925E+02 -0.18455671440E+02  0.62637158216E+02  0.66105898685E+02  0.10566000000E+00 0. -1.
        994    1    1    2    0    0 -0.10517752758E+01  0.88548705936E+01  0.38560901300E+01  0.17147543380E+03  0.17120000000E+03 0.  0.
        998    1    1    2    0    0  0.11345136200E+02  0.96008008469E+01  0.14335067479E+04  0.14336186675E+04  0.10000000000E+02 0. -1.
</event>
<event>
 5    1  0.1360042E-008  0.3695714E+03  0.7957747E-01  0.3497863E+00
         13   -1    0    0    0    0  0.00000000000E+00  0.00000000000E+00  0.14999999963E+04  0.15000000000E+04  0.10566000000E+00 0.  1.
        994   -1    0    0    0    0 -0.00000000000E+00 -0.00000000000E+00  0.11368683772E-12  0.17120000000E+03  0.17120000000E+03 0.  0.
         13    1    1    2    0    0  0.96309103775E+01 -0.35989100443E+01  0.11754595690E+01  0.10348886773E+02  0.10566000000E+00 0.  1.
        994    1    1    2    0    0  0.59908372224E+01  0.18203048961E+02  0.10765968899E+02  0.17260529311E+03  0.17120000000E+03 0.  0.
        998    1    1    2    0    0 -0.15621747600E+02 -0.14604138916E+02  0.14880585678E+04  0.14882458201E+04  0.10000000000E+02 0.  1.
</event>
<event>
 5    1  0.1360042E-008  0.3833299E+03  0.7957747E-01  0.3436786E+00
         13   -1    0    0    0    0  0.00000000000E+00  0.00000000000E+00  0.14999999963E+04  0.15000000000E+04  0.10566000000E+00 0.  1.
        994   -1    0    0    0    0 -0.00000000000E+00 -0.00000000000E+00  0.11368683772E-12  0.17120000000E+03  0.17120000000E+03 0.  0.
         13    1    1    2    0    0  0.18883614957E+02  0.17770480465E+02  0.13586320452E+03  0.13831558985E+03  0.10566000000E+00 0.  1.
        994    1    1    2    0    0 -0.20272421619E+02 -0.17444637937E+01  0.38317322647E+01  0.17244748883E+03  0.17120000000E+03 0.  0.
        998    1    1    2    0    0  0.13888066619E+01 -0.16026016671E+02  0.13603050595E+04  0.13604369213E+04  0.10000000000E+02 0.  1.
</event>
<event>
 5    1  0.1558424E-008  0.3858209E+03  0.7957747E-01  0.3426198E+00
         13   -1    0    0    0    0  0.00000000000E+00  0.00000000000E+00  0.14999999963E+04  0.15000000000E+04  0.10566000000E+00 0.  1.
        994   -1    0    0    0    0 -0.00000000000E+00 -0.00000000000E+00  0.11368683772E-12  0.17120000000E+03  0.17120000000E+03 0.  0.
         13    1    1    2    0    0 -0.32638510449E+01  0.97709900419E+01  0.42266381943E+02  0.43503829448E+02  0.10566000000E+00 0.  1.
        994    1    1    2    0    0  0.49042067520E+01 -0.11876629239E+02  0.17648256744E+01  0.17169059431E+03  0.17120000000E+03 0.  0.
        998    1    1    2    0    0 -0.16403557071E+01  0.21056391972E+01  0.14559687887E+04  0.14560055762E+04  0.10000000000E+02 0.  1.
</event>
<event>
 5    1  0.1360042E-008  0.3851525E+03  0.7957747E-01  0.3429026E+00
         13   -1    0    0    0    0  0.00000000000E+00  0.00000000000E+00  0.14999999963E+04  0.15000000000E+04  0.10566000000E+00 0.  1.
        994   -1    0    0    0    0 -0.00000000000E+00 -0.00000000000E+00  0.11368683772E-12  0.17120000000E+03  0.17120000000E+03 0.  0.
         13    1    1    2    0    0 -0.17001377928E+01  0.10378994877E+02  0.35786981989E+02  0.37300579715E+02  0.10566000000E+00 0.  1.
        994    1    1    2    0    0  0.39537391727E+00 -0.53383198272E+01  0.16486475139E+01  0.17129159938E+03  0.17120000000E+03 0.  0.
        998    1    1    2    0    0  0.13047638756E+01 -0.50406750495E+01  0.14625643668E+04  0.14626078209E+04  0.10000000000E+02 0.  1.
</event>
<event>
 5    1  0.1360042E-008  0.3690235E+03  0.7957747E-01  0.3500391E+00
         13   -1    0    0    0    0  0.00000000000E+00  0.00000000000E+00  0.14999999963E+04  0.15000000000E+04  0.10566000000E+00 0. -1.
        994   -1    0    0    0    0 -0.00000000000E+00 -0.00000000000E+00  0.11368683772E-12  0.17120000000E+03  0.17120000000E+03 0.  0.
         13    1    1    2    0    0  0.22925402893E+02 -0.28974332578E+02  0.44264744113E+02  0.57658171854E+02  0.10566000000E+00 0. -1.
        994    1    1    2    0    0 -0.51172684023E+02  0.13008571550E+03  0.81965404349E+02  0.23573015182E+03  0.17120000000E+03 0.  0.
        998    1    1    2    0    0  0.28247281131E+02 -0.10111138292E+03  0.13737698478E+04  0.13778116763E+04  0.10000000000E+02 0. -1.
</event>
<event>
 5    1  0.1360042E-008  0.3810594E+03  0.7957747E-01  0.3446558E+00
         13   -1    0    0    0    0  0.00000000000E+00  0.00000000000E+00  0.14999999963E+04  0.15000000000E+04  0.10566000000E+00 0. -1.
        994   -1    0    0    0    0 -0.00000000000E+00 -0.00000000000E+00  0.11368683772E-12  0.17120000000E+03  0.17120000000E+03 0.  0.
         13    1    1    2    0    0  0.32658085559E+02  0.14345698784E+01  0.14889816466E+03  0.15244436082E+03  0.10566000000E+00 0. -1.
        994    1    1    2    0    0 -0.17759809694E+02  0.23654840486E+01  0.46693947170E+01  0.17219828571E+03  0.17120000000E+03 0.  0.
        998    1    1    2    0    0 -0.14898275864E+02 -0.38000539270E+01  0.13464324369E+04  0.13465573535E+04  0.10000000000E+02 0. -1.
</event>
<event>
 5    1  0.1360042E-008  0.3740669E+03  0.7957747E-01  0.3477406E+00
         13   -1    0    0    0    0  0.00000000000E+00  0.00000000000E+00  0.14999999963E+04  0.15000000000E+04  0.10566000000E+00 0.  1.
        994   -1    0    0    0    0 -0.00000000000E+00 -0.00000000000E+00  0.11368683772E-12  0.17120000000E+03  0.17120000000E+03 0.  0.
         13    1    1    2    0    0  0.58605593718E+02  0.11074121588E+03  0.33843712307E+03  0.36088492618E+03  0.10566000000E+00 0.  1.
        994    1    1    2    0    0 -0.66887555780E+02 -0.15128288971E+03  0.11765952657E+03  0.26554408679E+03  0.17120000000E+03 0.  0.
        998    1    1    2    0    0  0.82819620625E+01  0.40541673828E+02  0.10439033466E+04  0.10447709870E+04  0.10000000000E+02 0.  1.
</event>
<event>
 5    1  0.1360042E-008  0.3852544E+03  0.7957747E-01  0.3428594E+00
         13   -1    0    0    0    0  0.00000000000E+00  0.00000000000E+00  0.14999999963E+04  0.15000000000E+04  0.10566000000E+00 0. -1.
        994   -1    0    0    0    0 -0.00000000000E+00 -0.00000000000E+00  0.11368683772E-12  0.17120000000E+03  0.17120000000E+03 0.  0.
         13    1    1    2    0    0  0.54146442612E+01  0.13579655550E+02  0.74224758063E+02  0.75650851223E+02  0.10566000000E+00 0. -1.
        994    1    1    2    0    0  0.51697830316E+01 -0.62473982469E+01  0.17199773751E+01  0.17140056874E+03  0.17120000000E+03 0.  0.
        998    1    1    2    0    0 -0.10584427293E+02 -0.73322573029E+01  0.14240552608E+04  0.14241485800E+04  0.10000000000E+02 0. -1.
</event>
<event>
 5    1  0.1360042E-008  0.3768925E+03  0.7957747E-01  0.3464802E+00
         13   -1    0    0    0    0  0.00000000000E+00  0.00000000000E+00  0.14999999963E+04  0.15000000000E+04  0.10566000000E+00 0.  1.
        994   -1    0    0    0    0 -0.00000000000E+00 -0.00000000000E+00  0.11368683772E-12  0.17120000000E+03  0.17120000000E+03 0.  0.
         13    1    1    2    0    0 -0.42023384027E+00  0.15752562388E+02  0.19018279948E+02  0.24698703498E+02  0.10566000000E+00 0.  1.
        994    1    1    2    0    0  0.65900897697E+00 -0.16981207997E+02  0.66861168227E+01  0.17217125160E+03  0.17120000000E+03 0.  0.
        998    1    1    2    0    0 -0.23877513670E+00  0.12286456088E+01  0.14742955995E+04  0.14743300449E+04  0.10000000000E+02 0.  1.
</event>
<event>
 5    1  0.1360042E-008  0.3814250E+03  0.7957747E-01  0.3444977E+00
         13   -1    0    0    0    0  0.00000000000E+00  0.00000000000E+00  0.14999999963E+04  0.15000000000E+04  0.10566000000E+00 0.  1.
        994   -1    0    0    0    0 -0.00000000000E+00 -0.00000000000E+00  0.11368683772E-12  0.17120000000E+03  0.17120000000E+03 0.  0.
         13    1    1    2    0    0  0.12769208090E+02 -0.22051860991E+01  0.23113960241E+02  0.26498713988E+02  0.10566000000E+00 0.  1.
        994    1    1    2    0    0 -0.10849044028E+02 -0.58148631615E-02  0.38072578423E+01  0.17158565500E+03  0.17120000000E+03 0.  0.
        998    1    1    2    0    0 -0.19201640622E+01  0.22110009623E+01  0.14730787782E+04  0.14731156310E+04  0.10000000000E+02 0.  1.
</event>
<event>
 5    1  0.1360042E-008  0.3850015E+03  0.7957747E-01  0.3429666E+00
         13   -1    0    0    0    0  0.00000000000E+00  0.00000000000E+00  0.14999999963E+04  0.15000000000E+04  0.10566000000E+00 0.  1.
        994   -1    0    0    0    0 -0.00000000000E+00 -0.00000000000E+00  0.11368683772E-12  0.17120000000E+03  0.17120000000E+03 0.  0.
         13    1    1    2    0    0  0.24751324371E+01 -0.10581994805E+02  0.36000133959E+02  0.37604862767E+02  0.10566000000E+00 0.  1.
        994    1    1    2    0    0  0.34232117967E+00  0.80942812413E+01  0.18452671780E+01  0.17140151570E+03  0.17120000000E+03 0.  0.
        998    1    1    2    0    0 -0.28174536167E+01  0.24877135634E+01  0.14621545951E+04  0.14621936215E+04  0.10000000000E+02 0.  1.
</event>
<event>
 5    1  0.1360042E-008  0.3853165E+03  0.7957747E-01  0.3428331E+00
         13   -1    0    0    0    0  0.00000000000E+00  0.00000000000E+00  0.14999999963E+04  0.15000000000E+04  0.10566000000E+00 0. -1.
        994   -1    0    0    0    0 -0.00000000000E+00 -0.00000000000E+00  0.11368683772E-12  0.17120000000E+03  0.17120000000E+03 0.  0.
         13    1    1    2    0    0 -0.73928452588E+01  0.15546160634E+02  0.10192231092E+03  0.10336588364E+03  0.10566000000E+00 0. -1.
        994    1    1    2    0    0  0.17213856620E+02 -0.30705204087E+01  0.24781801710E+01  0.17210847258E+03  0.17120000000E+03 0.  0.
        998    1    1    2    0    0 -0.98210113611E+01 -0.12475640226E+02  0.13955995052E+04  0.13957256438E+04  0.10000000000E+02 0. -1.
</event>
<event>
 5    1  0.1360042E-008  0.3852885E+03  0.7957747E-01  0.3428449E+00
         13   -1    0    0    0    0  0.00000000000E+00  0.00000000000E+00  0.14999999963E+04  0.15000000000E+04  0.10566000000E+00 0. -1.
        994   -1    0    0    0    0 -0.00000000000E+00 -0.00000000000E+00  0.11368683772E-12  0.17120000000E+03  0.17120000000E+03 0.  0.
         13    1    1    2    0    0 -0.10814858829E+02  0.96224543022E+01  0.63263554967E+02  0.64898700676E+02  0.10566000000E+00 0. -1.
        994    1    1    2    0    0  0.22665688806E+02 -0.14939435773E+02  0.39119047860E+01  0.17338299568E+03  0.17120000000E+03 0.  0.
        998    1    1    2    0    0 -0.11850829977E+02  0.53169814704E+01  0.14328245365E+04  0.14329183036E+04  0.10000000000E+02 0. -1.
</event>
<event>
 5    1  0.1360042E-008  0.3816228E+03  0.7957747E-01  0.3444123E+00
         13   -1    0    0    0    0  0.00000000000E+00  0.00000000000E+00  0.14999999963E+04  0.15000000000E+04  0.10566000000E+00 0. -1.
        994   -1    0    0    0    0 -0.00000000000E+00 -0.00000000000E+00  0.11368683772E-12  0.17120000000E+03  0.17120000000E+03 0.  0.
         13    1    1    2    0    0 -0.10169499803E+02 -0.25073363094E+02  0.10940496057E+03  0.11270114829E+03  0.10566000000E+00 0. -1.
        994    1    1    2    0    0 -0.75226653716E+01  0.20851088977E+02  0.49517220172E+01  0.17270008094E+03  0.17120000000E+03 0.  0.
        998    1    1    2    0    0  0.17692165174E+02  0.42222741162E+01  0.13856433137E+04  0.13857987708E+04  0.10000000000E+02 0. -1.
</event>
<event>
 5    1  0.1360042E-008  0.3830809E+03  0.7957747E-01  0.3437852E+00
         13   -1    0    0    0    0  0.00000000000E+00  0.00000000000E+00  0.14999999963E+04  0.15000000000E+04  0.10566000000E+00 0. -1.
        994   -1    0    0    0    0 -0.00000000000E+00 -0.00000000000E+00  0.11368683772E-12  0.17120000000E+03  0.17120000000E+03 0.  0.
         13    1    1    2    0    0 -0.80399579222E+00 -0.69403065890E+02  0.12841569432E+03  0.14597271552E+03  0.10566000000E+00 0. -1.
        994    1    1    2    0    0 -0.51202891299E+01  0.44442947285E+02  0.25401114335E+02  0.17876255070E+03  0.17120000000E+03 0.  0.
        998    1    1    2    0    0  0.59242849222E+01  0.24960118605E+02  0.13461831876E+04  0.13464647338E+04  0.10000000000E+02 0. -1.
</event>
<event>
 5    1  0.1360042E-008  0.3739497E+03  0.7957747E-01  0.3477933E+00
         13   -1    0    0    0    0  0.00000000000E+00  0.00000000000E+00  0.14999999963E+04  0.15000000000E+04  0.10566000000E+00 0. -1.
        994   -1    0    0    0    0 -0.00000000000E+00 -0.00000000000E+00  0.11368683772E-12  0.17120000000E+03  0.17120000000E+03 0.  0.
         13    1    1    2    0    0 -0.60352031051E+02 -0.52100665047E+02  0.41755386660E+03  0.42509774126E+03  0.10566000000E+00 0. -1.
        994    1    1    2    0    0  0.58238427705E+02  0.12792937664E+02  0.19446011805E+02  0.18232652328E+03  0.17120000000E+03 0.  0.
        998    1    1    2    0    0  0.21136033456E+01  0.39307727383E+02  0.10630001179E+04  0.10637757355E+04  0.10000000000E+02 0. -1.
</event>
<event>
 5    1  0.1360042E-008  0.3847475E+03  0.7957747E-01  0.3430744E+00
         13   -1    0    0    0    0  0.00000000000E+00  0.00000000000E+00  0.14999999963E+04  0.15000000000E+04  0.10566000000E+00 0.  1.
        994   -1    0    0    0    0 -0.00000000000E+00 -0.00000000000E+00  0.11368683772E-12  0.17120000000E+03  0.17120000000E+03 0.  0.
         13    1    1    2    0    0  0.12619356961E+02 -0.13331993056E+02  0.10104562942E+03  0.10269966211E+03  0.10566000000E+00 0.  1.
        994    1    1    2    0    0 -0.46513634750E+01  0.23469733565E+01  0.18449124276E+01  0.17128919163E+03  0.17120000000E+03 0.  0.
        998    1    1    2    0    0 -0.79679934857E+01  0.10985019700E+02  0.13971094544E+04  0.13972111463E+04  0.10000000000E+02 0.  1.
</event>
<event>
 5    1  0.1360042E-008  0.3829485E+03  0.7957747E-01  0.3438420E+00
         13   -1    0    0    0    0  0.00000000000E+00  0.00000000000E+00  0.14999999963E+04  0.15000000000E+04  0.10566000000E+00 0.  1.
        994   -1    0    0    0    0 -0.00000000000E+00 -0.00000000000E+00  0.11368683772E-12  0.17120000000E+03  0.17120000000E+03 0.  0.
         13    1    1    2    0    0  0.54165066278E+01  0.13102275993E+02  0.36671358601E+02  0.39316763421E+02  0.10566000000E+00 0.  1.
        994    1    1    2    0    0 -0.33121219407E+01 -0.11709664755E+02  0.31425409222E+01  0.17166071759E+03  0.17120000000E+03 0.  0.
        998    1    1    2    0    0 -0.21043846871E+01 -0.13926112381E+01  0.14601860968E+04  0.14602225190E+04  0.10000000000E+02 0.  1.
</event>
<event>
 5    1  0.1360042E-008  0.3840390E+03  0.7957747E-01  0.3433758E+00
         13   -1    0    0    0    0  0.00000000000E+00  0.00000000000E+00  0.14999999963E+04  0.15000000000E+04  0.10566000000E+00 0.  1.
        994   -1    0    0    0    0 -0.00000000000E+00 -0.00000000000E+00  0.11368683772E-12  0.17120000000E+03  0.17120000000E+03 0.  0.
         13    1    1    2    0    0  0.12160875973E+02  0.13697416888E+02  0.71710300170E+02  0.74012731664E+02  0.10566000000E+00 0.  1.
        994    1    1    2    0    0 -0.16310509695E+02 -0.24089339582E+02  0.49049596558E+01  0.17372342282E+03  0.17120000000E+03 0.  0.
        998    1    1    2    0    0  0.41496337229E+01  0.10391922694E+02  0.14233847365E+04  0.14234638455E+04  0.10000000000E+02 0.  1.
</event>
<event>
 5    1  0.1360042E-008  0.3756977E+03  0.7957747E-01  0.3470108E+00
         13   -1    0    0    0    0  0.00000000000E+00  0.00000000000E+00  0.14999999963E+04  0.15000000000E+04  0.10566000000E+00 0.  1.
        994   -1    0    0    0    0 -0.00000000000E+00 -0.00000000000E+00  0.11368683772E-12  0.17120000000E+03  0.17120000000E+03 0.  0.
         13    1    1    2    0    0  0.18370924943E+02 -0.82543825446E+01  0.29016852812E+02  0.35321588662E+02  0.10566000000E+00 0.  1.
        994    1    1    2    0    0 -0.15379920529E+02  0.13760954597E+02  0.77665291757E+01  0.17261420800E+03  0.17120000000E+03 0.  0.
        998    1    1    2    0    0 -0.29910044133E+01 -0.55065720525E+01  0.14632166143E+04  0.14632642033E+04  0.10000000000E+02 0.  1.
</event>
<event>
 5    1  0.1360042E-008  0.3791859E+03  0.7957747E-01  0.3454711E+00
         13   -1    0    0    0    0  0.00000000000E+00  0.00000000000E+00  0.14999999963E+04  0.15000000000E+04  0.10566000000E+00 0.  1.
        994   -1    0    0    0    0 -0.00000000000E+00 -0.00000000000E+00  0.11368683772E-12  0.17120000000E+03  0.17120000000E+03 0.  0.
         13    1    1    2    0    0  0.34934007183E+02  0.98810197333E+00  0.15200127793E+03  0.15596717879E+03  0.10566000000E+00 0.  1.
        994    1    1    2    0    0  0.11755287263E+01 -0.74595482496E+01  0.47358444031E+01  0.17143189595E+03  0.17120000000E+03 0.  0.
        998    1    1    2    0    0 -0.36109535909E+02  0.64714462763E+01  0.13432628739E+04  0.13438009253E+04  0.10000000000E+02 0.  1.
</event>
<event>
 5    1  0.1360042E-008  0.3839879E+03  0.7957747E-01  0.3433976E+00
         13   -1    0    0    0    0  0.00000000000E+00  0.00000000000E+00  0.14999999963E+04  0.15000000000E+04  0.10566000000E+00 0. -1.
        994   -1    0    0    0    0 -0.00000000000E+00 -0.00000000000E+00  0.11368683772E-12  0.17120000000E+03  0.17120000000E+03 0.  0.
         13    1    1    2    0    0 -0.21896633196E+02 -0.77492875460E+01  0.11996064461E+03  0.12218871233E+03  0.10566000000E+00 0. -1.
        994    1    1    2    0    0  0.22034434399E+02  0.31828866388E+00  0.37373645937E+01  0.17265290470E+03  0.17120000000E+03 0.  0.
        998    1    1    2    0    0 -0.13780120225E+00  0.74309988821E+01  0.13763019871E+04  0.13763583830E+04  0.10000000000E+02 0. -1.
</event>
<event>
 5    1  0.1360042E-008  0.3853797E+03  0.7957747E-01  0.3428063E+00
         13   -1    0    0    0    0  0.00000000000E+00  0.00000000000E+00  0.14999999963E+04  0.15000000000E+04  0.10566000000E+00 0. -1.
        994   -1    0    0    0    0 -0.00000000000E+00 -0.00000000000E+00  0.11368683772E-12  0.17120000000E+03  0.17120000000E+03 0.  0.
         13    1    1    2    0    0 -0.10296586467E+01  0.10520314028E+02  0.40229274325E+02  0.41594986247E+02  0.10566000000E+00 0. -1.
        994    1    1    2    0    0 -0.74870904995E+01 -0.11525055392E+01  0.16302277140E+01  0.17137526786E+03  0.17120000000E+03 0.  0.
        998    1    1    2    0    0  0.85167491462E+01 -0.93678084886E+01  0.14581404942E+04  0.14582297459E+04  0.10000000000E+02 0. -1.
</event>
<event>
 5    1  0.1360042E-008  0.3848641E+03  0.7957747E-01  0.3430249E+00
         13   -1    0    0    0    0  0.00000000000E+00  0.00000000000E+00  0.14999999963E+04  0.15000000000E+04  0.10566000000E+00 0.  1.
        994   -1    0    0    0    0 -0.00000000000E+00 -0.00000000000E+00  0.11368683772E-12  0.17120000000E+03  0.17120000000E+03 0.  0.
         13    1    1    2    0    0 -0.86799044260E+01 -0.94534370710E+01  0.45106962365E+02  0.46897307291E+02  0.10566000000E+00 0.  1.
        994    1    1    2    0    0  0.15878322191E+02  0.15487216494E+02  0.33179192521E+01  0.17266274520E+03  0.17120000000E+03 0.  0.
        998    1    1    2    0    0 -0.71984177645E+01 -0.60337794227E+01  0.14515751147E+04  0.14516399475E+04  0.10000000000E+02 0.  1.
</event>
<event>
 5    1  0.1360042E-008  0.3693922E+03  0.7957747E-01  0.3498689E+00
         13   -1    0    0    0    0  0.00000000000E+00  0.00000000000E+00  0.14999999963E+04  0.15000000000E+04  0.10566000000E+00 0. -1.
        994   -1    0    0    0    0 -0.00000000000E+00 -0.00000000000E+00  0.11368683772E-12  0.17120000000E+03  0.17120000000E+03 0.  0.
         13    1    1    2    0    0  0.97265799895E+02  0.10610936435E+03  0.65400989332E+03  0.66966318755E+03  0.10566000000E+00 0. -1.
        994    1    1    2    0    0 -0.14781226836E+03 -0.59120691841E+02  0.10330953793E+03  0.25558956064E+03  0.17120000000E+03 0.  0.
        998    1    1    2    0    0  0.50546468461E+02 -0.46988672508E+02  0.74268056503E+03  0.74594725181E+03  0.10000000000E+02 0. -1.
</event>
<event>
 5    1  0.1360042E-008  0.3846312E+03  0.7957747E-01  0.3431238E+00
         13   -1    0    0    0    0  0.00000000000E+00  0.00000000000E+00  0.14999999963E+04  0.15000000000E+04  0.10566000000E+00 0.  1.
        994   -1    0    0    0    0 -0.00000000000E+00 -0.00000000000E+00  0.11368683772E-12  0.17120000000E+03  0.17120000000E+03 0.  0.
         13    1    1    2    0    0 -0.83874053365E+01  0.14933681799E+02  0.90367128511E+02  0.91976043075E+02  0.10566000000E+00 0.  1.
        994    1    1    2    0    0  0.37930691949E+01  0.72127842663E+01  0.20320286913E+01  0.17140589480E+03  0.17120000000E+03 0.  0.
        998    1    1    2    0    0  0.45943361416E+01 -0.22146466066E+02  0.14076008391E+04  0.14078180621E+04  0.10000000000E+02 0.  1.
</event>
<event>
 5    1  0.1360042E-008  0.3795744E+03  0.7957747E-01  0.3453014E+00
         13   -1    0    0    0    0  0.00000000000E+00  0.00000000000E+00  0.14999999963E+04  0.15000000000E+04  0.10566000000E+00 0. -1.
        994   -1    0    0    0    0 -0.00000000000E+00 -0.00000000000E+00  0.11368683772E-12  0.17120000000E+03  0.17120000000E+03 0.  0.
         13    1    1    2    0    0  0.28042119049E+01  0.19520126392E+02  0.42041207139E+02  0.46436765612E+02  0.10566000000E+00 0. -1.
        994    1    1    2    0    0 -0.49860375362E+01 -0.19473988241E+02  0.57020560856E+01  0.17247043292E+03  0.17120000000E+03 0.  0.
        998    1    1    2    0    0  0.21818256314E+01 -0.46138151081E-01  0.14522567331E+04  0.14522928015E+04  0.10000000000E+02 0. -1.
</event>
<event>
 5    1  0.1360042E-008  0.3779699E+03  0.7957747E-01  0.3460046E+00
         13   -1    0    0    0    0  0.00000000000E+00  0.00000000000E+00  0.14999999963E+04  0.15000000000E+04  0.10566000000E+00 0.  1.
        994   -1    0    0    0    0 -0.00000000000E+00 -0.00000000000E+00  0.11368683772E-12  0.17120000000E+03  0.17120000000E+03 0.  0.
         13    1    1    2    0    0 -0.46724828361E+02 -0.28242352701E+02  0.21984822672E+03  0.22652614424E+03  0.10566000000E+00 0.  1.
        994    1    1    2    0    0  0.67704562808E+02  0.24817264655E+02  0.22866004445E+02  0.18716863682E+03  0.17120000000E+03 0.  0.
        998    1    1    2    0    0 -0.20979734447E+02  0.34250880458E+01  0.12572857651E+04  0.12575052189E+04  0.10000000000E+02 0.  1.
</event>
<event>
 5    1  0.1360042E-008  0.3844039E+03  0.7957747E-01  0.3432204E+00
         13   -1    0    0    0    0  0.00000000000E+00  0.00000000000E+00  0.14999999963E+04  0.15000000000E+04  0.10566000000E+00 0.  1.
        994   -1    0    0    0    0 -0.00000000000E+00 -0.00000000000E+00  0.11368683772E-12  0.17120000000E+03  0.17120000000E+03 0.  0.
         13    1    1    2    0    0 -0.58506605324E+01 -0.12907910077E+02  0.49491267332E+02  0.51480492202E+02  0.10566000000E+00 0.  1.
        994    1    1    2    0    0  0.75600521526E+01  0.16779539660E+02  0.30432155085E+01  0.17221326459E+03  0.17120000000E+03 0.  0.
        998    1    1    2    0    0 -0.17093916202E+01 -0.38716295833E+01  0.14474655134E+04  0.14475062432E+04  0.10000000000E+02 0.  1.
</event>
<event>
 5    1  0.1360042E-008  0.3848789E+03  0.7957747E-01  0.3430186E+00
         13   -1    0    0    0    0  0.00000000000E+00  0.00000000000E+00  0.14999999963E+04  0.15000000000E+04  0.10566000000E+00 0. -1.
        994   -1    0    0    0    0 -0.00000000000E+00 -0.00000000000E+00  0.11368683772E-12  0.17120000000E+03  0.17120000000E+03 0.  0.
         13    1    1    2    0    0  0.11318229986E+02  0.29379221420E+01  0.38989051044E+02  0.40704925769E+02  0.10566000000E+00 0. -1.
        994    1    1    2    0    0 -0.13517669608E+02 -0.56533372358E+01  0.23969169635E+01  0.17184258152E+03  0.17120000000E+03 0.  0.
        998    1    1    2    0    0  0.21994396223E+01  0.27154150938E+01  0.14586140283E+04  0.14586524927E+04  0.10000000000E+02 0. -1.
</event>
<event>
 5    1  0.1360042E-008  0.3826579E+03  0.7957747E-01  0.3439667E+00
         13   -1    0    0    0    0  0.00000000000E+00  0.00000000000E+00  0.14999999963E+04  0.15000000000E+04  0.10566000000E+00 0.  1.
        994   -1    0    0    0    0 -0.00000000000E+00 -0.00000000000E+00  0.11368683772E-12  0.17120000000E+03  0.17120000000E+03 0.  0.
         13    1    1    2    0    0 -0.97731954861E+01  0.17762029022E+02  0.72766944540E+02  0.75538363808E+02  0.10566000000E+00 0.  1.
        994    1    1    2    0    0  0.62191121076E+01 -0.10853319884E+02  0.33161301474E+01  0.17168840563E+03  0.17120000000E+03 0.  0.
        998    1    1    2    0    0  0.35540833785E+01 -0.69087091381E+01  0.14239169216E+04  0.14239732306E+04  0.10000000000E+02 0.  1.
</event>
<event>
 5    1  0.1360042E-008  0.3838719E+03  0.7957747E-01  0.3434471E+00
         13   -1    0    0    0    0  0.00000000000E+00  0.00000000000E+00  0.14999999963E+04  0.15000000000E+04  0.10566000000E+00 0.  1.
        994   -1    0    0    0    0 -0.00000000000E+00 -0.00000000000E+00  0.11368683772E-12  0.17120000000E+03  0.17120000000E+03 0.  0.
         13    1    1    2    0    0  0.21768583678E+01 -0.14164651502E+02  0.47069513400E+02  0.49202909673E+02  0.10566000000E+00 0.  1.
        994    1    1    2    0    0  0.55944356318E+01  0.72049701594E+01  0.24659573997E+01  0.17146057929E+03  0.17120000000E+03 0.  0.
        998    1    1    2    0    0 -0.77712939996E+01  0.69596813427E+01  0.14504645255E+04  0.14505365110E+04  0.10000000000E+02 0.  1.
</event>
<event>
 5    1  0.1360042E-008  0.3832106E+03  0.7957747E-01  0.3437297E+00
         13   -1    0    0    0    0  0.00000000000E+00  0.00000000000E+00  0.14999999963E+04  0.15000000000E+04  0.10566000000E+00 0. -1.
        994   -1    0    0    0    0 -0.00000000000E+00 -0.00000000000E+00  0.11368683772E-12  0.17120000000E+03  0.17120000000E+03 0.  0.
         13    1    1    2    0    0 -0.12517458884E+02  0.24324787730E+02  0.13905258384E+03  0.14171808039E+03  0.10566000000E+00 0. -1.
        994    1    1    2    0    0  0.85031896456E+01 -0.23140424375E+02  0.45341919109E+01  0.17302538071E+03  0.17120000000E+03 0.  0.
        998    1    1    2    0    0  0.40142692383E+01 -0.11843633550E+01  0.13564132205E+04  0.13564565389E+04  0.10000000000E+02 0. -1.
</event>
<event>
 5    1  0.1360042E-008  0.3834530E+03  0.7957747E-01  0.3436260E+00
         13   -1    0    0    0    0  0.00000000000E+00  0.00000000000E+00  0.14999999963E+04  0.15000000000E+04  0.10566000000E+00 0. -1.
        994   -1    0    0    0    0 -0.00000000000E+00 -0.00000000000E+00  0.11368683772E-12  0.17120000000E+03  0.17120000000E+03 0.  0.
         13    1    1    2    0    0 -0.13191850271E+02  0.35978248039E+01  0.38724357906E+02  0.41067704053E+02  0.10566000000E+00 0. -1.
        994    1    1    2    0    0  0.72647905956E+01  0.28691399778E+01  0.26018336036E+01  0.17139783746E+03  0.17120000000E+03 0.  0.
        998    1    1    2    0    0  0.59270596751E+01 -0.64669647817E+01  0.14586738048E+04  0.14587344585E+04  0.10000000000E+02 0. -1.
</event>
<event>
 5    1  0.1360042E-008  0.3829033E+03  0.7957747E-01  0.3438614E+00
         13   -1    0    0    0    0  0.00000000000E+00  0.00000000000E+00  0.14999999963E+04  0.15000000000E+04  0.10566000000E+00 0.  1.
        994   -1    0    0    0    0 -0.00000000000E+00 -0.00000000000E+00  0.11368683772E-12  0.17120000000E+03  0.17120000000E+03 0.  0.
         13    1    1    2    0    0 -0.50446732011E+01 -0.11217982169E+02  0.27712850495E+02  0.30320044496E+02  0.10566000000E+00 0.  1.
        994    1    1    2    0    0 -0.70218686404E+01  0.82659191062E+01  0.30643101235E+01  0.17157057456E+03  0.17120000000E+03 0.  0.
        998    1    1    2    0    0  0.12066541842E+02  0.29520630629E+01  0.14692228357E+04  0.14693093809E+04  0.10000000000E+02 0.  1.
</event>
<event>
 5    1  0.1360042E-008  0.3711499E+03  0.7957747E-01  0.3490623E+00
         13   -1    0    0    0    0  0.00000000000E+00  0.00000000000E+00  0.14999999963E+04  0.15000000000E+04  0.10566000000E+00 0. -1.
        994   -1    0    0    0    0 -0.00000000000E+00 -0.00000000000E+00  0.11368683772E-12  0.17120000000E+03  0.17120000000E+03 0.  0.
         13    1    1    2    0    0 -0.30800044387E+02  0.18994045433E+03  0.75194162657E+03  0.77617152734E+03  0.10566000000E+00 0. -1.
        994    1    1    2    0    0  0.24289310401E+02 -0.19998946407E+03  0.16474429828E+03  0.31150582684E+03  0.17120000000E+03 0.  0.
        998    1    1    2    0    0  0.65107339860E+01  0.10049009744E+02  0.58331407143E+03  0.58352264582E+03  0.10000000000E+02 0. -1.
</event>
<event>
 5    1  0.1360042E-008  0.2456351E+03  0.7957747E-01  0.4381468E+00
         13   -1    0    0    0    0  0.00000000000E+00  0.00000000000E+00  0.14999999963E+04  0.15000000000E+04  0.10566000000E+00 0. -1.
        994   -1    0    0    0    0 -0.00000000000E+00 -0.00000000000E+00  0.11368683772E-12  0.17120000000E+03  0.17120000000E+03 0.  0.
         13    1    1    2    0    0  0.18024914091E+03 -0.24579494491E+02  0.30583722398E+03  0.35585154642E+03  0.10566000000E+00 0. -1.
        994    1    1    2    0    0 -0.13673974273E+03 -0.15552390342E+01  0.14022027869E+03  0.26013716106E+03  0.17120000000E+03 0.  0.
        998    1    1    2    0    0 -0.43509398177E+02  0.26134733525E+02  0.10539424936E+04  0.10552112925E+04  0.10000000000E+02 0. -1.
</event>
<event>
 5    1  0.1360042E-008  0.3839019E+03  0.7957747E-01  0.3434343E+00
         13   -1    0    0    0    0  0.00000000000E+00  0.00000000000E+00  0.14999999963E+04  0.15000000000E+04  0.10566000000E+00 0. -1.
        994   -1    0    0    0    0 -0.00000000000E+00 -0.00000000000E+00  0.11368683772E-12  0.17120000000E+03  0.17120000000E+03 0.  0.
         13    1    1    2    0    0  0.46923083525E+01 -0.11691795628E+02  0.36648542733E+02  0.38753615201E+02  0.10566000000E+00 0. -1.
        994    1    1    2    0    0 -0.42877355136E+01  0.21824878462E+01  0.22526948423E+01  0.17128240588E+03  0.17120000000E+03 0.  0.
        998    1    1    2    0    0 -0.40457283894E+00  0.95093077814E+01  0.14610987587E+04  0.14611639789E+04  0.10000000000E+02 0. -1.
</event>
<event>
 5    1  0.1360042E-008  0.3826896E+03  0.7957747E-01  0.3439530E+00
         13   -1    0    0    0    0  0.00000000000E+00  0.00000000000E+00  0.14999999963E+04  0.15000000000E+04  0.10566000000E+00 0. -1.
        994   -1    0    0    0    0 -0.00000000000E+00 -0.00000000000E+00  0.11368683772E-12  0.17120000000E+03  0.17120000000E+03 0.  0.
         13    1    1    2    0    0  0.22437569561E+02 -0.13047890534E+02  0.13313868775E+03  0.13564517431E+03  0.10566000000E+00 0. -1.
        994    1    1    2    0    0 -0.49664950964E+01 -0.51456134453E+01  0.29510702636E+01  0.17137471292E+03  0.17120000000E+03 0.  0.
        998    1    1    2    0    0 -0.17471074464E+02  0.18193503979E+02  0.13639102383E+04  0.13641801128E+04  0.10000000000E+02 0. -1.
</event>
<event>
 5    1  0.1360042E-008  0.3797300E+03  0.7957747E-01  0.3452335E+00
         13   -1    0    0    0    0  0.00000000000E+00  0.00000000000E+00  0.14999999963E+04  0.15000000000E+04  0.10566000000E+00 0. -1.
        994   -1    0    0    0    0 -0.00000000000E+00 -0.00000000000E+00  0.11368683772E-12  0.17120000000E+03  0.17120000000E+03 0.  0.
         13    1    1    2    0    0  0.37831578994E+02  0.17816033558E+02  0.19656887415E+03  0.20096759159E+03  0.10566000000E+00 0. -1.
        994    1    1    2    0    0 -0.31809477951E+02 -0.72117469971E+00  0.76642011480E+01  0.17430015192E+03  0.17120000000E+03 0.  0.
        998    1    1    2    0    0 -0.60221010433E+01 -0.17094858858E+02  0.12957669210E+04  0.12959322565E+04  0.10000000000E+02 0. -1.
</event>
<event>
 5    1  0.1360042E-008  0.3747419E+03  0.7957747E-01  0.3474378E+00
         13   -1    0    0    0    0  0.00000000000E+00  0.00000000000E+00  0.14999999963E+04  0.15000000000E+04  0.10566000000E+00 0. -1.
        994   -1    0    0    0    0 -0.00000000000E+00 -0.00000000000E+00  0.11368683772E-12  0.17120000000E+03  0.17120000000E+03 0.  0.
         13    1    1    2    0    0 -0.94644010229E+01  0.66313526157E+01  0.66983275961E+01  0.13357712411E+02  0.10566000000E+00 0. -1.
        994    1    1    2    0    0  0.95131551181E+01 -0.88438408673E-01  0.71192920989E+01  0.17161186515E+03  0.17120000000E+03 0.  0.
        998    1    1    2    0    0 -0.48754095206E-01 -0.65429142071E+01  0.14861823766E+04  0.14862304224E+04  0.10000000000E+02 0. -1.
</event>
<event>
 5    1  0.1360042E-008  0.3852883E+03  0.7957747E-01  0.3428450E+00
         13   -1    0    0    0    0  0.00000000000E+00  0.00000000000E+00  0.14999999963E+04  0.15000000000E+04  0.10566000000E+00 0. -1.
        994   -1    0    0    0    0 -0.00000000000E+00 -0.00000000000E+00  0.11368683772E-12  0.17120000000E+03  0.17120000000E+03 0.  0.
         13    1    1    2    0    0  0.14793767756E+02  0.52877168941E+01  0.84988727520E+02  0.86428643885E+02  0.10566000000E+00 0. -1.
        994    1    1    2    0    0 -0.79290307080E+01 -0.25578008913E-01  0.16936428721E+01  0.17139188606E+03  0.17120000000E+03 0.  0.
        998    1    1    2    0    0 -0.68647370479E+01 -0.52621388852E+01  0.14133176259E+04  0.14133794701E+04  0.10000000000E+02 0. -1.
</event>
<event>
 5    1  0.1360042E-008  0.3761378E+03  0.7957747E-01  0.3468150E+00
         13   -1    0    0    0    0  0.00000000000E+00  0.00000000000E+00  0.14999999963E+04  0.15000000000E+04  0.10566000000E+00 0.  1.
        994   -1    0    0    0    0 -0.00000000000E+00 -0.00000000000E+00  0.11368683772E-12  0.17120000000E+03  0.17120000000E+03 0.  0.
         13    1    1    2    0    0  0.26132352117E+02  0.46281123160E+01  0.64124625946E+02  0.69399553799E+02  0.10566000000E+00 0.  1.
        994    1    1    2    0    0  0.26367379320E+02 -0.17029901156E+02  0.94390943147E+01  0.17430947400E+03  0.17120000000E+03 0.  0.
        998    1    1    2    0    0 -0.52499731437E+02  0.12401788840E+02  0.14264362760E+04  0.14274909722E+04  0.10000000000E+02 0.  1.
</event>
<event>
 5    1  0.1360042E-008  0.3867351E+03  0.7957747E-01  0.3422346E+00
         13   -1    0    0    0    0  0.00000000000E+00  0.00000000000E+00  0.14999999963E+04  0.15000000000E+04  0.10566000000E+00 0.  1.
        994   -1    0    0    0    0 -0.00000000000E+00 -0.00000000000E+00  0.11368683772E-12  0.17120000000E+03  0.17120000000E+03 0.  0.
         13    1    1    2    0    0  0.23499912010E+02 -0.53300405516E+02  0.71656274700E+02  0.92346152928E+02  0.10566000000E+00 0.  1.
        994    1    1    2    0    0 -0.25012847584E+02  0.65036451679E+02  0.38350006449E+02  0.18877379475E+03  0.17120000000E+03 0.  0.
        998    1    1    2    0    0  0.15129355735E+01 -0.11736046163E+02  0.13899937151E+04  0.13900800523E+04  0.10000000000E+02 0.  1.
</event>
<event>
 5    1  0.1360042E-008  0.3696476E+03  0.7957747E-01  0.3497512E+00
         13   -1    0    0    0    0  0.00000000000E+00  0.00000000000E+00  0.14999999963E+04  0.15000000000E+04  0.10566000000E+00 0.  1.
        994   -1    0    0    0    0 -0.00000000000E+00 -0.00000000000E+00  0.11368683772E-12  0.17120000000E+03  0.17120000000E+03 0.  0.
         13    1    1    2    0    0  0.13363979156E+02 -0.18955857797E+02  0.24753048188E+02  0.33921159213E+02  0.10566000000E+00 0.  1.
        994    1    1    2    0    0 -0.22305350288E+02 -0.13145503950E+01  0.11183661896E+02  0.17301378843E+03  0.17120000000E+03 0.  0.
        998    1    1    2    0    0  0.89413711323E+01  0.20270408192E+02  0.14640632862E+04  0.14642650524E+04  0.10000000000E+02 0.  1.
</event>
<event>
 5    1  0.1360042E-008  0.3841487E+03  0.7957747E-01  0.3433291E+00
         13   -1    0    0    0    0  0.00000000000E+00  0.00000000000E+00  0.14999999963E+04  0.15000000000E+04  0.10566000000E+00 0.  1.
        994   -1    0    0    0    0 -0.00000000000E+00 -0.00000000000E+00  0.11368683772E-12  0.17120000000E+03  0.17120000000E+03 0.  0.
         13    1    1    2    0    0  0.19424621679E+02  0.11130747239E+02  0.11067790558E+03  0.11291952625E+03  0.10566000000E+00 0.  1.
        994    1    1    2    0    0 -0.26716985113E+02 -0.75057532796E+01  0.45972270846E+01  0.17349555649E+03  0.17120000000E+03 0.  0.
        998    1    1    2    0    0  0.72923634344E+01 -0.36249939594E+01  0.13847248636E+04  0.13847849173E+04  0.10000000000E+02 0.  1.
</event>
<event>
 5    1  0.1360042E-008  0.3867436E+03  0.7957747E-01  0.3422311E+00
         13   -1    0    0    0    0  0.00000000000E+00  0.00000000000E+00  0.14999999963E+04  0.15000000000E+04  0.10566000000E+00 0. -1.
        994   -1    0    0    0    0 -0.00000000000E+00 -0.00000000000E+00  0.11368683772E-12  0.17120000000E+03  0.17120000000E+03 0.  0.
         13    1    1    2    0    0  0.42000855604E+02  0.33662001257E+02  0.61380186823E+02  0.81637863143E+02  0.10566000000E+00 0. -1.
        994    1    1    2    0    0 -0.31824437622E+02 -0.56112515758E+02  0.35713424169E+02  0.18640358881E+03  0.17120000000E+03 0.  0.
        998    1    1    2    0    0 -0.10176417981E+02  0.22450514501E+02  0.14029063853E+04  0.14031585480E+04  0.10000000000E+02 0. -1.
</event>
<event>
 5    1  0.1360042E-008  0.3853947E+03  0.7957747E-01  0.3428000E+00
         13   -1    0    0    0    0  0.00000000000E+00  0.00000000000E+00  0.14999999963E+04  0.15000000000E+04  0.10566000000E+00 0.  1.
        994   -1    0    0    0    0 -0.00000000000E+00 -0.00000000000E+00  0.11368683772E-12  0.17120000000E+03  0.17120000000E+03 0.  0.
         13    1    1    2    0    0  0.27737793365E+01 -0.13934137318E+02  0.80396301019E+02  0.81642087284E+02  0.10566000000E+00 0.  1.
        994    1    1    2    0    0  0.11775199529E+02 -0.51260379791E+01  0.19762140220E+01  0.17169239066E+03  0.17120000000E+03 0.  0.
        998    1    1    2    0    0 -0.14548978865E+02  0.19060175297E+02  0.14176274812E+04  0.14178655221E+04  0.10000000000E+02 0.  1.
</event>
<event>
 5    1  0.1360042E-008  0.3777914E+03  0.7957747E-01  0.3460832E+00
         13   -1    0    0    0    0  0.00000000000E+00  0.00000000000E+00  0.14999999963E+04  0.15000000000E+04  0.10566000000E+00 0. -1.
        994   -1    0    0    0    0 -0.00000000000E+00 -0.00000000000E+00  0.11368683772E-12  0.17120000000E+03  0.17120000000E+03 0.  0.
         13    1    1    2    0    0 -0.29595263702E+02 -0.19341322561E+02  0.11027982397E+03  0.11580853652E+03  0.10566000000E+00 0. -1.
        994    1    1    2    0    0  0.20924183146E+02  0.29908983159E+02  0.97521007336E+01  0.17531945751E+03  0.17120000000E+03 0.  0.
        998    1    1    2    0    0  0.86710805553E+01 -0.10567660598E+02  0.13799680716E+04  0.13800720060E+04  0.10000000000E+02 0. -1.
</event>
<event>
 5    1  0.1360042E-008  0.3788582E+03  0.7957747E-01  0.3456145E+00
         13   -1    0    0    0    0  0.00000000000E+00  0.00000000000E+00  0.14999999963E+04  0.15000000000E+04  0.10566000000E+00 0.  1.
        994   -1    0    0    0    0 -0.00000000000E+00 -0.00000000000E+00  0.11368683772E-12  0.17120000000E+03  0.17120000000E+03 0.  0.
         13    1    1    2    0    0  0.99632755043E+01  0.19190417480E+02  0.46768318644E+02  0.51525001452E+02  0.10566000000E+00 0.  1.
        994    1    1    2    0    0 -0.15451246255E+02 -0.15174505788E+02  0.62859919772E+01  0.17267877789E+03  0.17120000000E+03 0.  0.
        998    1    1    2    0    0  0.54879707507E+01 -0.40159116920E+01  0.14469456857E+04  0.14469962207E+04  0.10000000000E+02 0.  1.
</event>
<event>
 5    1  0.1360042E-008  0.3710100E+03  0.7957747E-01  0.3491262E+00
         13   -1    0    0    0    0  0.00000000000E+00  0.00000000000E+00  0.14999999963E+04  0.15000000000E+04  0.10566000000E+00 0.  1.
        994   -1    0    0    0    0 -0.00000000000E+00 -0.00000000000E+00  0.11368683772E-12  0.17120000000E+03  0.17120000000E+03 0.  0.
         13    1    1    2    0    0 -0.12628077181E+02 -0.63293737101E+01  0.34091416718E+01  0.14531438876E+02  0.10566000000E+00 0.  1.
        994    1    1    2    0    0  0.15642118311E+02 -0.12526087926E+01  0.12338253712E+02  0.17235984857E+03  0.17120000000E+03 0.  0.
        998    1    1    2    0    0 -0.30140411303E+01  0.75819825027E+01  0.14842526009E+04  0.14843087126E+04  0.10000000000E+02 0.  1.
</event>
<event>
 5    1  0.1360042E-008  0.3831220E+03  0.7957747E-01  0.3437676E+00
         13   -1    0    0    0    0  0.00000000000E+00  0.00000000000E+00  0.14999999963E+04  0.15000000000E+04  0.10566000000E+00 0.  1.
        994   -1    0    0    0    0 -0.00000000000E+00 -0.00000000000E+00  0.11368683772E-12  0.17120000000E+03  0.17120000000E+03 0.  0.
         13    1    1    2    0    0  0.76601164668E+01  0.96489962986E+01  0.28404110259E+02  0.30961026428E+02  0.10566000000E+00 0.  1.
        994    1    1    2    0    0 -0.77785631493E+01 -0.85330311044E+01  0.30066504451E+01  0.17161526334E+03  0.17120000000E+03 0.  0.
        998    1    1    2    0    0  0.11844668256E+00 -0.11159651942E+01  0.14685892356E+04  0.14686237102E+04  0.10000000000E+02 0.  1.
</event>
<event>
 5    1  0.1360042E-008  0.2386998E+03  0.7957747E-01  0.4461911E+00
         13   -1    0    0    0    0  0.00000000000E+00  0.00000000000E+00  0.14999999963E+04  0.15000000000E+04  0.10566000000E+00 0. -1.
        994   -1    0    0    0    0 -0.00000000000E+00 -0.00000000000E+00  0.11368683772E-12  0.17120000000E+03  0.17120000000E+03 0.  0.
         13    1    1    2    0    0  0.52297595968E+02  0.12575328784E+03  0.47017876778E+02  0.14408199002E+03  0.10566000000E+00 0. -1.
        994    1    1    2    0    0 -0.55044170118E+02 -0.12278092122E+03  0.28295229065E+03  0.35703844900E+03  0.17120000000E+03 0.  0.
        998    1    1    2    0    0  0.27465741497E+01 -0.29723666249E+01  0.11700298289E+04  0.11700795610E+04  0.10000000000E+02 0. -1.
</event>
<event>
 5    1  0.1360042E-008  0.3846265E+03  0.7957747E-01  0.3431258E+00
         13   -1    0    0    0    0  0.00000000000E+00  0.00000000000E+00  0.14999999963E+04  0.15000000000E+04  0.10566000000E+00 0. -1.
        994   -1    0    0    0    0 -0.00000000000E+00 -0.00000000000E+00  0.11368683772E-12  0.17120000000E+03  0.17120000000E+03 0.  0.
         13    1    1    2    0    0  0.10209346959E+02  0.19497715887E+01  0.29337112148E+02  0.31124101398E+02  0.10566000000E+00 0. -1.
        994    1    1    2    0    0 -0.93142263256E+01  0.93791518221E+01  0.23911965835E+01  0.17172618065E+03  0.17120000000E+03 0.  0.
        998    1    1    2    0    0 -0.89512063369E+00 -0.11328923411E+02  0.14682716875E+04  0.14683497179E+04  0.10000000000E+02 0. -1.
</event>
<event>
 5    1  0.1360042E-008  0.3833344E+03  0.7957747E-01  0.3436767E+00
         13   -1    0    0    0    0  0.00000000000E+00  0.00000000000E+00  0.14999999963E+04  0.15000000000E+04  0.10566000000E+00 0. -1.
        994   -1    0    0    0    0 -0.00000000000E+00 -0.00000000000E+00  0.11368683772E-12  0.17120000000E+03  0.17120000000E+03 0.  0.
         13    1    1    2    0    0  0.19210213695E+02 -0.12499423425E+02  0.13503042117E+03  0.13696165048E+03  0.10566000000E+00 0. -1.
        994    1    1    2    0    0  0.12454468352E+02 -0.10640302365E+02  0.33470723713E+01  0.17201445494E+03  0.17120000000E+03 0.  0.
        998    1    1    2    0    0 -0.31664682047E+02  0.23139725790E+02  0.13616225027E+04  0.13622238946E+04  0.10000000000E+02 0. -1.
</event>
<event>
 5    1  0.1360042E-008  0.3780334E+03  0.7957747E-01  0.3459766E+00
         13   -1    0    0    0    0  0.00000000000E+00  0.00000000000E+00  0.14999999963E+04  0.15000000000E+04  0.10566000000E+00 0. -1.
        994   -1    0    0    0    0 -0.00000000000E+00 -0.00000000000E+00  0.11368683772E-12  0.17120000000E+03  0.17120000000E+03 0.  0.
         13    1    1    2    0    0 -0.15844211201E+02 -0.17027007818E+02  0.49893225719E+02  0.55048189439E+02  0.10566000000E+00 0. -1.
        994    1    1    2    0    0  0.11953406401E+02  0.16445145847E+02  0.65211636451E+01  0.17252620764E+03  0.17120000000E+03 0.  0.
        998    1    1    2    0    0  0.38908047994E+01  0.58186197104E+00  0.14435856069E+04  0.14436256029E+04  0.10000000000E+02 0. -1.
</event>
<event>
 5    1  0.1360042E-008  0.3834418E+03  0.7957747E-01  0.3436307E+00
         13   -1    0    0    0    0  0.00000000000E+00  0.00000000000E+00  0.14999999963E+04  0.15000000000E+04  0.10566000000E+00 0.  1.
        994   -1    0    0    0    0 -0.00000000000E+00 -0.00000000000E+00  0.11368683772E-12  0.17120000000E+03  0.17120000000E+03 0.  0.
         13    1    1    2    0    0 -0.96110839260E+01 -0.30603407314E+01  0.21613198253E+02  0.23851207986E+02  0.10566000000E+00 0.  1.
        994    1    1    2    0    0 -0.76316723584E+01 -0.15741130412E+02  0.34178837860E+01  0.17212538319E+03  0.17120000000E+03 0.  0.
        998    1    1    2    0    0  0.17242756284E+02  0.18801471144E+02  0.14749689142E+04  0.14752234088E+04  0.10000000000E+02 0.  1.
</event>
<event>
 5    1  0.1360042E-008  0.3718666E+03  0.7957747E-01  0.3487356E+00
         13   -1    0    0    0    0  0.00000000000E+00  0.00000000000E+00  0.14999999963E+04  0.15000000000E+04  0.10566000000E+00 0. -1.
        994   -1    0    0    0    0 -0.00000000000E+00 -0.00000000000E+00  0.11368683772E-12  0.17120000000E+03  0.17120000000E+03 0.  0.
         13    1    1    2    0    0 -0.25838444082E+02 -0.12712836845E+02  0.45154414167E+02  0.53555333031E+02  0.10566000000E+00 0. -1.
        994    1    1    2    0    0  0.29503776352E+02  0.10525720383E+02  0.11675286354E+02  0.17443341400E+03  0.17120000000E+03 0.  0.
        998    1    1    2    0    0 -0.36653322700E+01  0.21871164621E+01  0.14431702958E+04  0.14432112530E+04  0.10000000000E+02 0. -1.
</event>
<event>
 5    1  0.1360042E-008  0.3773085E+03  0.7957747E-01  0.3462962E+00
         13   -1    0    0    0    0  0.00000000000E+00  0.00000000000E+00  0.14999999963E+04  0.15000000000E+04  0.10566000000E+00 0.  1.
        994   -1    0    0    0    0 -0.00000000000E+00 -0.00000000000E+00  0.11368683772E-12  0.17120000000E+03  0.17120000000E+03 0.  0.
         13    1    1    2    0    0 -0.12881406635E+01  0.17431877765E+02  0.24955639368E+02  0.30468422491E+02  0.10566000000E+00 0.  1.
        994    1    1    2    0    0  0.10304680547E+01 -0.20054063470E+02  0.68592466259E+01  0.17251004780E+03  0.17120000000E+03 0.  0.
        998    1    1    2    0    0  0.25767260876E+00  0.26221857054E+01  0.14681851103E+04  0.14682215297E+04  0.10000000000E+02 0.  1.
</event>
<event>
 5    1  0.1360042E-008  0.3748699E+03  0.7957747E-01  0.3473805E+00
         13   -1    0    0    0    0  0.00000000000E+00  0.00000000000E+00  0.14999999963E+04  0.15000000000E+04  0.10566000000E+00 0. -1.
        994   -1    0    0    0    0 -0.00000000000E+00 -0.00000000000E+00  0.11368683772E-12  0.17120000000E+03  0.17120000000E+03 0.  0.
         13    1    1    2    0    0 -0.18193466071E+02  0.12744789344E+02  0.31270690794E+02  0.38357517253E+02  0.10566000000E+00 0. -1.
        994    1    1    2    0    0  0.24325305315E+02 -0.41009171761E+02  0.14516488537E+02  0.17830771460E+03  0.17120000000E+03 0.  0.
        998    1    1    2    0    0 -0.61318392443E+01  0.28264382417E+02  0.14542128169E+04  0.14545347681E+04  0.10000000000E+02 0. -1.
</event>
<event>
 5    1  0.1360042E-008  0.3820462E+03  0.7957747E-01  0.3442297E+00
         13   -1    0    0    0    0  0.00000000000E+00  0.00000000000E+00  0.14999999963E+04  0.15000000000E+04  0.10566000000E+00 0. -1.
        994   -1    0    0    0    0 -0.00000000000E+00 -0.00000000000E+00  0.11368683772E-12  0.17120000000E+03  0.17120000000E+03 0.  0.
         13    1    1    2    0    0  0.15174021581E+02 -0.16885001308E+02  0.83921505048E+02  0.86937819007E+02  0.10566000000E+00 0. -1.
        994    1    1    2    0    0 -0.15586943281E+02 -0.46908434299E+00  0.39116332029E+01  0.17195323119E+03  0.17120000000E+03 0.  0.
        998    1    1    2    0    0  0.41292170014E+00  0.17354085651E+02  0.14121668580E+04  0.14123089498E+04  0.10000000000E+02 0. -1.
</event>
<event>
 5    1  0.1360042E-008  0.3854881E+03  0.7957747E-01  0.3427605E+00
         13   -1    0    0    0    0  0.00000000000E+00  0.00000000000E+00  0.14999999963E+04  0.15000000000E+04  0.10566000000E+00 0.  1.
        994   -1    0    0    0    0 -0.00000000000E+00 -0.00000000000E+00  0.11368683772E-12  0.17120000000E+03  0.17120000000E+03 0.  0.
         13    1    1    2    0    0  0.21616925765E+01  0.10587365427E+02  0.41701556020E+02  0.43078952633E+02  0.10566000000E+00 0.  1.
        994    1    1    2    0    0 -0.30382148554E+01 -0.90138231129E+01  0.16851610587E+01  0.17147232874E+03  0.17120000000E+03 0.  0.
        998    1    1    2    0    0  0.87652227897E+00 -0.15735423142E+01  0.14566132792E+04  0.14566487186E+04  0.10000000000E+02 0.  1.
</event>
<event>
 5    1  0.1360042E-008  0.3841853E+03  0.7957747E-01  0.3433135E+00
         13   -1    0    0    0    0  0.00000000000E+00  0.00000000000E+00  0.14999999963E+04  0.15000000000E+04  0.10566000000E+00 0.  1.
        994   -1    0    0    0    0 -0.00000000000E+00 -0.00000000000E+00  0.11368683772E-12  0.17120000000E+03  0.17120000000E+03 0.  0.
         13    1    1    2    0    0 -0.21272530957E+02 -0.15674681871E+02  0.15740877715E+03  0.15961124808E+03  0.10566000000E+00 0.  1.
        994    1    1    2    0    0  0.23686248607E+02  0.10672013593E+02  0.42637953647E+01  0.17321244239E+03  0.17120000000E+03 0.  0.
        998    1    1    2    0    0 -0.24137176498E+01  0.50026682788E+01  0.13383274238E+04  0.13383763095E+04  0.10000000000E+02 0.  1.
</event>
<event>
 5    1  0.1360042E-008  0.3839484E+03  0.7957747E-01  0.3434144E+00
         13   -1    0    0    0    0  0.00000000000E+00  0.00000000000E+00  0.14999999963E+04  0.15000000000E+04  0.10566000000E+00 0. -1.
        994   -1    0    0    0    0 -0.00000000000E+00 -0.00000000000E+00  0.11368683772E-12  0.17120000000E+03  0.17120000000E+03 0.  0.
         13    1    1    2    0    0  0.22011273946E+02  0.28217335560E+01  0.11050601798E+03  0.11271224217E+03  0.10566000000E+00 0. -1.
        994    1    1    2    0    0 -0.18216600799E+02  0.72636160280E+00  0.32506845400E+01  0.17219866171E+03  0.17120000000E+03 0.  0.
        998    1    1    2    0    0 -0.37946731464E+01 -0.35480951588E+01  0.13862432938E+04  0.13862890961E+04  0.10000000000E+02 0. -1.
</event>
<event>
 5    1  0.1360042E-008  0.3763122E+03  0.7957747E-01  0.3467375E+00
         13   -1    0    0    0    0  0.00000000000E+00  0.00000000000E+00  0.14999999963E+04  0.15000000000E+04  0.10566000000E+00 0.  1.
        994   -1    0    0    0    0 -0.00000000000E+00 -0.00000000000E+00  0.11368683772E-12  0.17120000000E+03  0.17120000000E+03 0.  0.
         13    1    1    2    0    0 -0.14914678869E+03 -0.12060742032E+03  0.96600150059E+03  0.98486030721E+03  0.10566000000E+00 0.  1.
        994    1    1    2    0    0  0.14281897733E+03  0.11955707676E+03  0.13421803484E+03  0.28638274348E+03  0.17120000000E+03 0.  0.
        998    1    1    2    0    0  0.63278113573E+01  0.10503435640E+01  0.39978046085E+03  0.39995694930E+03  0.10000000000E+02 0.  1.
</event>
<event>
 5    1  0.1360042E-008  0.3754390E+03  0.7957747E-01  0.3471262E+00
         13   -1    0    0    0    0  0.00000000000E+00  0.00000000000E+00  0.14999999963E+04  0.15000000000E+04  0.10566000000E+00 0. -1.
        994   -1    0    0    0    0 -0.00000000000E+00 -0.00000000000E+00  0.11368683772E-12  0.17120000000E+03  0.17120000000E+03 0.  0.
         13    1    1    2    0    0  0.15025006929E+02  0.87697512725E+02  0.48872140967E+03  0.49675470004E+03  0.10566000000E+00 0. -1.
        994    1    1    2    0    0  0.42944009726E+01 -0.75539144355E+02  0.26138584597E+02  0.18899013153E+03  0.17120000000E+03 0.  0.
        998    1    1    2    0    0 -0.19319407901E+02 -0.12158368370E+02  0.98514000201E+03  0.98545516844E+03  0.10000000000E+02 0. -1.
</event>
<event>
 5    1  0.1360042E-008  0.3804122E+03  0.7957747E-01  0.3449365E+00
         13   -1    0    0    0    0  0.00000000000E+00  0.00000000000E+00  0.14999999963E+04  0.15000000000E+04  0.10566000000E+00 0.  1.
        994   -1    0    0    0    0 -0.00000000000E+00 -0.00000000000E+00  0.11368683772E-12  0.17120000000E+03  0.17120000000E+03 0.  0.
         13    1    1    2    0    0 -0.21433706367E+02 -0.20539565688E+02  0.11309681938E+03  0.11692809434E+03  0.10566000000E+00 0.  1.
        994    1    1    2    0    0  0.85913247592E+01  0.11912882806E+02  0.46456980245E+01  0.17189168144E+03  0.17120000000E+03 0.  0.
        998    1    1    2    0    0  0.12842381608E+02  0.86266828817E+01  0.13822574789E+04  0.13823802242E+04  0.10000000000E+02 0.  1.
</event>
<event>
 5    1  0.1360042E-008  0.3757079E+03  0.7957747E-01  0.3470063E+00
         13   -1    0    0    0    0  0.00000000000E+00  0.00000000000E+00  0.14999999963E+04  0.15000000000E+04  0.10566000000E+00 0.  1.
        994   -1    0    0    0    0 -0.00000000000E+00 -0.00000000000E+00  0.11368683772E-12  0.17120000000E+03  0.17120000000E+03 0.  0.
         13    1    1    2    0    0 -0.59669263145E+01 -0.22637675588E+02  0.13228741323E+02  0.26890134374E+02  0.10566000000E+00 0.  1.
        994    1    1    2    0    0  0.18911924475E+02  0.23537783878E+02  0.17248555250E+02  0.17469585231E+03  0.17120000000E+03 0.  0.
        998    1    1    2    0    0 -0.12944998161E+02 -0.90010828989E+00  0.14695226997E+04  0.14696140133E+04  0.10000000000E+02 0.  1.
</event>
<event>
 5    1  0.1360042E-008  0.3947968E+03  0.7957747E-01  0.3389156E+00
         13   -1    0    0    0    0  0.00000000000E+00  0.00000000000E+00  0.14999999963E+04  0.15000000000E+04  0.10566000000E+00 0.  1.
        994   -1    0    0    0    0 -0.00000000000E+00 -0.00000000000E+00  0.11368683772E-12  0.17120000000E+03  0.17120000000E+03 0.  0.
         13    1    1    2    0    0  0.76835966508E+02 -0.27925033184E+02  0.12915629961E+03  0.15285592602E+03  0.10566000000E+00 0.  1.
        994    1    1    2    0    0 -0.47497734652E+02  0.24540961264E+02  0.35744503877E+02  0.18288084409E+03  0.17120000000E+03 0.  0.
        998    1    1    2    0    0 -0.29338231856E+02  0.33840719199E+01  0.13350991928E+04  0.13354632299E+04  0.10000000000E+02 0.  1.
</event>
<event>
 5    1  0.1360042E-008  0.3715183E+03  0.7957747E-01  0.3488942E+00
         13   -1    0    0    0    0  0.00000000000E+00  0.00000000000E+00  0.14999999963E+04  0.15000000000E+04  0.10566000000E+00 0. -1.
        994   -1    0    0    0    0 -0.00000000000E+00 -0.00000000000E+00  0.11368683772E-12  0.17120000000E+03  0.17120000000E+03 0.  0.
         13    1    1    2    0    0  0.13205437906E+02  0.41385692665E+02  0.71189183966E+02  0.83397063650E+02  0.10566000000E+00 0. -1.
        994    1    1    2    0    0 -0.20255218728E+02 -0.46393686291E+02  0.20805769450E+02  0.17973582853E+03  0.17120000000E+03 0.  0.
        998    1    1    2    0    0  0.70497808221E+01  0.50079936256E+01  0.14080050429E+04  0.14080671078E+04  0.10000000000E+02 0. -1.
</event>
<event>
 5    1  0.1360042E-008  0.3741069E+03  0.7957747E-01  0.3477227E+00
         13   -1    0    0    0    0  0.00000000000E+00  0.00000000000E+00  0.14999999963E+04  0.15000000000E+04  0.10566000000E+00 0.  1.
        994   -1    0    0    0    0 -0.00000000000E+00 -0.00000000000E+00  0.11368683772E-12  0.17120000000E+03  0.17120000000E+03 0.  0.
         13    1    1    2    0    0  0.23792704587E+02  0.12158312050E+02  0.46625208732E+02  0.53738613649E+02  0.10566000000E+00 0.  1.
        994    1    1    2    0    0 -0.18213315899E+02 -0.12369133139E+02  0.87924433347E+01  0.17283364079E+03  0.17120000000E+03 0.  0.
        998    1    1    2    0    0 -0.55793886888E+01  0.21082108901E+00  0.14445823442E+04  0.14446277456E+04  0.10000000000E+02 0.  1.
</event>
<event>
 5    1  0.1360042E-008  0.4140870E+03  0.7957747E-01  0.3314962E+00
         13   -1    0    0    0    0  0.00000000000E+00  0.00000000000E+00  0.14999999963E+04  0.15000000000E+04  0.10566000000E+00 0. -1.
        994   -1    0    0    0    0 -0.00000000000E+00 -0.00000000000E+00  0.11368683772E-12  0.17120000000E+03  0.17120000000E+03 0.  0.
         13    1    1    2    0    0  0.58372720669E+02 -0.18487590204E+02  0.37484629623E+02  0.71793273584E+02  0.10566000000E+00 0. -1.
        994    1    1    2    0    0 -0.58576669558E+02  0.23106523609E+02  0.53150534202E+02  0.18999883404E+03  0.17120000000E+03 0.  0.
        998    1    1    2    0    0  0.20394888882E+00 -0.46189334058E+01  0.14093648325E+04  0.14094078924E+04  0.10000000000E+02 0. -1.
</event>
<event>
 5    1  0.1360042E-008  0.3861369E+03  0.7957747E-01  0.3424865E+00
         13   -1    0    0    0    0  0.00000000000E+00  0.00000000000E+00  0.14999999963E+04  0.15000000000E+04  0.10566000000E+00 0.  1.
        994   -1    0    0    0    0 -0.00000000000E+00 -0.00000000000E+00  0.11368683772E-12  0.17120000000E+03  0.17120000000E+03 0.  0.
         13    1    1    2    0    0 -0.36584687217E+01  0.12031140181E+02  0.75987708627E+02  0.77021268192E+02  0.10566000000E+00 0.  1.
        994    1    1    2    0    0  0.98014738241E+01 -0.44334737323E+01  0.14459965285E+01  0.17154374219E+03  0.17120000000E+03 0.  0.
        998    1    1    2    0    0 -0.61430051023E+01 -0.75976664490E+01  0.14225662911E+04  0.14226349896E+04  0.10000000000E+02 0.  1.
</event>
<event>
 5    1  0.1360042E-008  0.3852809E+03  0.7957747E-01  0.3428482E+00
         13   -1    0    0    0    0  0.00000000000E+00  0.00000000000E+00  0.14999999963E+04  0.15000000000E+04  0.10566000000E+00 0.  1.
        994   -1    0    0    0    0 -0.00000000000E+00 -0.00000000000E+00  0.11368683772E-12  0.17120000000E+03  0.17120000000E+03 0.  0.
         13    1    1    2    0    0  0.11611878041E+02 -0.55159068886E+01  0.57869128603E+02  0.59279913544E+02  0.10566000000E+00 0.  1.
        994    1    1    2    0    0 -0.12038338244E+02 -0.19073290038E+02  0.31639788912E+01  0.17270831695E+03  0.17120000000E+03 0.  0.
        998    1    1    2    0    0  0.42646020328E+00  0.24589196926E+02  0.14389668888E+04  0.14392117695E+04  0.10000000000E+02 0.  1.
</event>
<event>
 5    1  0.1360042E-008  0.3853850E+03  0.7957747E-01  0.3428041E+00
         13   -1    0    0    0    0  0.00000000000E+00  0.00000000000E+00  0.14999999963E+04  0.15000000000E+04  0.10566000000E+00 0.  1.
        994   -1    0    0    0    0 -0.00000000000E+00 -0.00000000000E+00  0.11368683772E-12  0.17120000000E+03  0.17120000000E+03 0.  0.
         13    1    1    2    0    0  0.19806797682E+00  0.11240168031E+02  0.42464683986E+02  0.43927681004E+02  0.10566000000E+00 0.  1.
        994    1    1    2    0    0 -0.20430067752E+01 -0.14089689741E+02  0.21051617264E+01  0.17180385601E+03  0.17120000000E+03 0.  0.
        998    1    1    2    0    0  0.18449387983E+01  0.28495217101E+01  0.14554301506E+04  0.14554684630E+04  0.10000000000E+02 0.  1.
</event>
<event>
 5    1  0.1360042E-008  0.3813970E+03  0.7957747E-01  0.3445098E+00
         13   -1    0    0    0    0  0.00000000000E+00  0.00000000000E+00  0.14999999963E+04  0.15000000000E+04  0.10566000000E+00 0.  1.
        994   -1    0    0    0    0 -0.00000000000E+00 -0.00000000000E+00  0.11368683772E-12  0.17120000000E+03  0.17120000000E+03 0.  0.
         13    1    1    2    0    0  0.22739705170E+02 -0.18342100657E+02  0.11620123792E+03  0.11981763520E+03  0.10566000000E+00 0.  1.
        994    1    1    2    0    0 -0.20781724823E+02  0.18059871207E+02  0.59561321345E+01  0.17350203038E+03  0.17120000000E+03 0.  0.
        998    1    1    2    0    0 -0.19579803468E+01  0.28222944992E+00  0.13778426262E+04  0.13778803344E+04  0.10000000000E+02 0.  0.
</event>
<event>
 5    1  0.1360042E-008  0.3779062E+03  0.7957747E-01  0.3460326E+00
         13   -1    0    0    0    0  0.00000000000E+00  0.00000000000E+00  0.14999999963E+04  0.15000000000E+04  0.10566000000E+00 0. -1.
        994   -1    0    0    0    0 -0.00000000000E+00 -0.00000000000E+00  0.11368683772E-12  0.17120000000E+03  0.17120000000E+03 0.  0.
         13    1    1    2    0    0  0.32361919770E+02 -0.95841476182E+01  0.11228380915E+03  0.11724681103E+03  0.10566000000E+00 0. -1.
        994    1    1    2    0    0 -0.19254544895E+02 -0.20360896233E+02  0.78418609879E+01  0.17365551641E+03  0.17120000000E+03 0.  0.
        998    1    1    2    0    0 -0.13107374875E+02  0.29945043851E+02  0.13798743261E+04  0.13802976726E+04  0.10000000000E+02 0. -1.
</event>
<event>
 5    1  0.1360042E-008  0.3768102E+03  0.7957747E-01  0.3465166E+00
         13   -1    0    0    0    0  0.00000000000E+00  0.00000000000E+00  0.14999999963E+04  0.15000000000E+04  0.10566000000E+00 0. -1.
        994   -1    0    0    0    0 -0.00000000000E+00 -0.00000000000E+00  0.11368683772E-12  0.17120000000E+03  0.17120000000E+03 0.  0.
         13    1    1    2    0    0 -0.22978607561E+01  0.13713811076E+02  0.13628075460E+02  0.19470089446E+02  0.10566000000E+00 0. -1.
        994    1    1    2    0    0  0.23090882818E+02 -0.25822221657E+02  0.98170119620E+01  0.17494510489E+03  0.17120000000E+03 0.  0.
        998    1    1    2    0    0 -0.20793022062E+02  0.12108410581E+02  0.14765549089E+04  0.14767848057E+04  0.10000000000E+02 0. -1.
</event>
<event>
 5    1  0.1360042E-008  0.3747342E+03  0.7957747E-01  0.3474412E+00
         13   -1    0    0    0    0  0.00000000000E+00  0.00000000000E+00  0.14999999963E+04  0.15000000000E+04  0.10566000000E+00 0. -1.
        994   -1    0    0    0    0 -0.00000000000E+00 -0.00000000000E+00  0.11368683772E-12  0.17120000000E+03  0.17120000000E+03 0.  0.
         13    1    1    2    0    0  0.32692659761E+02 -0.32130879361E+01  0.74344688162E+02  0.81279011795E+02  0.10566000000E+00 0. -1.
        994    1    1    2    0    0 -0.28988909278E+02  0.22019319011E+01  0.96962634587E+01  0.17392142735E+03  0.17120000000E+03 0.  0.
        998    1    1    2    0    0 -0.37037504830E+01  0.10111560350E+01  0.14159590447E+04  0.14159995609E+04  0.10000000000E+02 0. -1.
</event>
<event>
 5    1  0.1360042E-008  0.3844246E+03  0.7957747E-01  0.3432116E+00
         13   -1    0    0    0    0  0.00000000000E+00  0.00000000000E+00  0.14999999963E+04  0.15000000000E+04  0.10566000000E+00 0. -1.
        994   -1    0    0    0    0 -0.00000000000E+00 -0.00000000000E+00  0.11368683772E-12  0.17120000000E+03  0.17120000000E+03 0.  0.
         13    1    1    2    0    0 -0.11000184185E+01 -0.17673714826E+02  0.87620805433E+02  0.89392320391E+02  0.10566000000E+00 0. -1.
        994    1    1    2    0    0  0.65582354469E+01  0.66788914935E+00  0.20592938113E+01  0.17133924600E+03  0.17120000000E+03 0.  0.
        998    1    1    2    0    0 -0.54582170285E+01  0.17005825677E+02  0.14103198970E+04  0.14104684336E+04  0.10000000000E+02 0. -1.
</event>
<event>
 5    1  0.1360042E-008  0.3812558E+03  0.7957747E-01  0.3445709E+00
         13   -1    0    0    0    0  0.00000000000E+00  0.00000000000E+00  0.14999999963E+04  0.15000000000E+04  0.10566000000E+00 0. -1.
        994   -1    0    0    0    0 -0.00000000000E+00 -0.00000000000E+00  0.11368683772E-12  0.17120000000E+03  0.17120000000E+03 0.  0.
         13    1    1    2    0    0 -0.18545789255E+01 -0.11413556941E+02  0.18109945306E+02  0.21486973450E+02  0.10566000000E+00 0. -1.
        994    1    1    2    0    0 -0.70074237586E+01 -0.10186540636E-01  0.36640744183E+01  0.17138252400E+03  0.17120000000E+03 0.  0.
        998    1    1    2    0    0  0.88620026841E+01  0.11423743481E+02  0.14782259766E+04  0.14783305025E+04  0.10000000000E+02 0. -1.
</event>
<event>
 5    1  0.1360042E-008  0.3765890E+03  0.7957747E-01  0.3466146E+00
         13   -1    0    0    0    0  0.00000000000E+00  0.00000000000E+00  0.14999999963E+04  0.15000000000E+04  0.10566000000E+00 0.  1.
        994   -1    0    0    0    0 -0.00000000000E+00 -0.00000000000E+00  0.11368683772E-12  0.17120000000E+03  0.17120000000E+03 0.  0.
         13    1    1    2    0    0 -0.44268324845E+02 -0.10646406348E+02  0.15659968594E+03  0.16308434429E+03  0.10566000000E+00 0.  1.
        994    1    1    2    0    0  0.44284203715E+02  0.15548052405E+02  0.13349483585E+02  0.17801820509E+03  0.17120000000E+03 0.  0.
        998    1    1    2    0    0 -0.15878869198E-01 -0.49016460574E+01  0.13300508268E+04  0.13300974506E+04  0.10000000000E+02 0.  0.
</event>
<event>
 5    1  0.1815685E-008  0.3860034E+03  0.7957747E-01  0.3425428E+00
         13   -1    0    0    0    0  0.00000000000E+00  0.00000000000E+00  0.14999999963E+04  0.15000000000E+04  0.10566000000E+00 0. -1.
        994   -1    0    0    0    0 -0.00000000000E+00 -0.00000000000E+00  0.11368683772E-12  0.17120000000E+03  0.17120000000E+03 0.  0.
         13    1    1    2    0    0 -0.16119455914E+01 -0.11583558017E+02  0.60192989295E+02  0.61318710923E+02  0.10566000000E+00 0. -1.
        994    1    1    2    0    0 -0.20229887866E+01  0.10250231415E+02  0.14906803610E+01  0.17152498901E+03  0.17120000000E+03 0.  0.
        998    1    1    2    0    0  0.36349343780E+01  0.13333266017E+01  0.14383163266E+04  0.14383563001E+04  0.10000000000E+02 0. -1.
</event>
<event>
 5    1  0.1360042E-008  0.3724066E+03  0.7957747E-01  0.3484903E+00
         13   -1    0    0    0    0  0.00000000000E+00  0.00000000000E+00  0.14999999963E+04  0.15000000000E+04  0.10566000000E+00 0.  1.
        994   -1    0    0    0    0 -0.00000000000E+00 -0.00000000000E+00  0.11368683772E-12  0.17120000000E+03  0.17120000000E+03 0.  0.
         13    1    1    2    0    0 -0.72529568599E+02  0.20229966310E+02  0.28510620390E+03  0.29488192302E+03  0.10566000000E+00 0.  1.
        994    1    1    2    0    0  0.71822152948E+02 -0.20761233648E+02  0.27434278723E+02  0.18881612782E+03  0.17120000000E+03 0.  0.
        998    1    1    2    0    0  0.70741565135E+00  0.53126733829E+00  0.11874595137E+04  0.11875019492E+04  0.10000000000E+02 0.  0.
</event>
<event>
 5    1  0.1360042E-008  0.3748534E+03  0.7957747E-01  0.3473879E+00
         13   -1    0    0    0    0  0.00000000000E+00  0.00000000000E+00  0.14999999963E+04  0.15000000000E+04  0.10566000000E+00 0. -1.
        994   -1    0    0    0    0 -0.00000000000E+00 -0.00000000000E+00  0.11368683772E-12  0.17120000000E+03  0.17120000000E+03 0.  0.
         13    1    1    2    0    0 -0.50424954239E+02  0.10488966517E+02  0.19257844714E+03  0.19934684320E+03  0.10566000000E+00 0. -1.
        994    1    1    2    0    0  0.25805758245E+02 -0.33358858220E+02  0.12827452704E+02  0.17678442840E+03  0.17120000000E+03 0.  0.
        998    1    1    2    0    0  0.24619195994E+02  0.22869891702E+02  0.12945940964E+04  0.12950687284E+04  0.10000000000E+02 0. -1.
</event>
<event>
 5    1  0.1360042E-008  0.3698273E+03  0.7957747E-01  0.3496685E+00
         13   -1    0    0    0    0  0.00000000000E+00  0.00000000000E+00  0.14999999963E+04  0.15000000000E+04  0.10566000000E+00 0. -1.
        994   -1    0    0    0    0 -0.00000000000E+00 -0.00000000000E+00  0.11368683772E-12  0.17120000000E+03  0.17120000000E+03 0.  0.
         13    1    1    2    0    0 -0.26563169466E+02 -0.64099564605E+02  0.40171054994E+03  0.40765884419E+03  0.10566000000E+00 0. -1.
        994    1    1    2    0    0 -0.15768852229E+02 -0.82032677671E+01  0.10453204945E+02  0.17243740834E+03  0.17120000000E+03 0.  0.
        998    1    1    2    0    0  0.42332021696E+02  0.72302832372E+02  0.10878362414E+04  0.10911037475E+04  0.10000000000E+02 0. -1.
</event>
<event>
 5    1  0.1360042E-008  0.3852333E+03  0.7957747E-01  0.3428683E+00
         13   -1    0    0    0    0  0.00000000000E+00  0.00000000000E+00  0.14999999963E+04  0.15000000000E+04  0.10566000000E+00 0.  1.
        994   -1    0    0    0    0 -0.00000000000E+00 -0.00000000000E+00  0.11368683772E-12  0.17120000000E+03  0.17120000000E+03 0.  0.
         13    1    1    2    0    0 -0.12385706951E+02  0.96387227200E+00  0.55611516542E+02  0.56982336935E+02  0.10566000000E+00 0.  1.
        994    1    1    2    0    0 -0.52095944309E+01  0.51790990253E+01  0.16917212719E+01  0.17136588010E+03  0.17120000000E+03 0.  0.
        998    1    1    2    0    0  0.17595301382E+02 -0.61429712973E+01  0.14426967585E+04  0.14428517830E+04  0.10000000000E+02 0.  1.
</event>
<event>
 5    1  0.1360042E-008  0.3817938E+03  0.7957747E-01  0.3443385E+00
         13   -1    0    0    0    0  0.00000000000E+00  0.00000000000E+00  0.14999999963E+04  0.15000000000E+04  0.10566000000E+00 0. -1.
        994   -1    0    0    0    0 -0.00000000000E+00 -0.00000000000E+00  0.11368683772E-12  0.17120000000E+03  0.17120000000E+03 0.  0.
         13    1    1    2    0    0 -0.16812414948E+02  0.52283354717E+01  0.45910079627E+02  0.49170513152E+02  0.10566000000E+00 0. -1.
        994    1    1    2    0    0  0.16519984314E+02 -0.32012821130E+01  0.41719343929E+01  0.17207557388E+03  0.17120000000E+03 0.  0.
        998    1    1    2    0    0  0.29243063435E+00 -0.20270533587E+01  0.14499179823E+04  0.14499539130E+04  0.10000000000E+02 0. -1.
</event>
<event>
 5    1  0.1360042E-008  0.3699766E+03  0.7957747E-01  0.3495998E+00
         13   -1    0    0    0    0  0.00000000000E+00  0.00000000000E+00  0.14999999963E+04  0.15000000000E+04  0.10566000000E+00 0. -1.
        994   -1    0    0    0    0 -0.00000000000E+00 -0.00000000000E+00  0.11368683772E-12  0.17120000000E+03  0.17120000000E+03 0.  0.
         13    1    1    2    0    0  0.15666770502E+03  0.64490482302E+02  0.70849544405E+03  0.72847072522E+03  0.10566000000E+00 0. -1.
        994    1    1    2    0    0 -0.14382892587E+03 -0.66317884281E+02  0.10456342332E+03  0.25559297954E+03  0.17120000000E+03 0.  0.
        998    1    1    2    0    0 -0.12838779155E+02  0.18274019788E+01  0.68694112891E+03  0.68713629524E+03  0.10000000000E+02 0. -1.
</event>
<event>
 5    1  0.1360042E-008  0.3833289E+03  0.7957747E-01  0.3436791E+00
         13   -1    0    0    0    0  0.00000000000E+00  0.00000000000E+00  0.14999999963E+04  0.15000000000E+04  0.10566000000E+00 0.  1.
        994   -1    0    0    0    0 -0.00000000000E+00 -0.00000000000E+00  0.11368683772E-12  0.17120000000E+03  0.17120000000E+03 0.  0.
         13    1    1    2    0    0  0.15042629855E+02 -0.37142140535E+01  0.48179607136E+02  0.50609898309E+02  0.10566000000E+00 0.  1.
        994    1    1    2    0    0 -0.11048263133E+02 -0.41258854317E+01  0.29221214210E+01  0.17163060870E+03  0.17120000000E+03 0.  0.
        998    1    1    2    0    0 -0.39943667224E+01  0.78400994852E+01  0.14488982677E+04  0.14489594930E+04  0.10000000000E+02 0.  1.
</event>
<event>
 5    1  0.1360042E-008  0.3713358E+03  0.7957747E-01  0.3489774E+00
         13   -1    0    0    0    0  0.00000000000E+00  0.00000000000E+00  0.14999999963E+04  0.15000000000E+04  0.10566000000E+00 0. -1.
        994   -1    0    0    0    0 -0.00000000000E+00 -0.00000000000E+00  0.11368683772E-12  0.17120000000E+03  0.17120000000E+03 0.  0.
         13    1    1    2    0    0 -0.12384314970E+02 -0.29192303825E+02  0.41098207414E+02  0.51909880337E+02  0.10566000000E+00 0. -1.
        994    1    1    2    0    0 -0.41649676585E+01 -0.11035115353E+01  0.11712125791E+02  0.17165424138E+03  0.17120000000E+03 0.  0.
        998    1    1    2    0    0  0.16549282629E+02  0.30295815360E+02  0.14471896631E+04  0.14476358783E+04  0.10000000000E+02 0. -1.
</event>
<event>
 5    1  0.1360042E-008  0.3849485E+03  0.7957747E-01  0.3429890E+00
         13   -1    0    0    0    0  0.00000000000E+00  0.00000000000E+00  0.14999999963E+04  0.15000000000E+04  0.10566000000E+00 0.  1.
        994   -1    0    0    0    0 -0.00000000000E+00 -0.00000000000E+00  0.11368683772E-12  0.17120000000E+03  0.17120000000E+03 0.  0.
         13    1    1    2    0    0  0.89635586420E+01  0.12764044240E+02  0.70361207916E+02  0.72069251087E+02  0.10566000000E+00 0.  1.
        994    1    1    2    0    0 -0.77709422058E+01 -0.15166617495E+02  0.26114971242E+01  0.17206589943E+03  0.17120000000E+03 0.  0.
        998    1    1    2    0    0 -0.11926164363E+01  0.24025732545E+01  0.14270272912E+04  0.14270648495E+04  0.10000000000E+02 0.  1.
</event>
<event>
 5    1  0.1360042E-008  0.3836818E+03  0.7957747E-01  0.3435282E+00
         13   -1    0    0    0    0  0.00000000000E+00  0.00000000000E+00  0.14999999963E+04  0.15000000000E+04  0.10566000000E+00 0.  1.
        994   -1    0    0    0    0 -0.00000000000E+00 -0.00000000000E+00  0.11368683772E-12  0.17120000000E+03  0.17120000000E+03 0.  0.
         13    1    1    2    0    0 -0.16653154973E+02 -0.63225970557E+00  0.67386784820E+02  0.69416981030E+02  0.10566000000E+00 0.  1.
        994    1    1    2    0    0 -0.94946109115E+01  0.28395174791E+02  0.52523373579E+01  0.17387771748E+03  0.17120000000E+03 0.  0.
        998    1    1    2    0    0  0.26147765884E+02 -0.27762915085E+02  0.14273608741E+04  0.14279053015E+04  0.10000000000E+02 0.  1.
</event>
<event>
 5    1  0.1360042E-008  0.3793551E+03  0.7957747E-01  0.3453971E+00
         13   -1    0    0    0    0  0.00000000000E+00  0.00000000000E+00  0.14999999963E+04  0.15000000000E+04  0.10566000000E+00 0. -1.
        994   -1    0    0    0    0 -0.00000000000E+00 -0.00000000000E+00  0.11368683772E-12  0.17120000000E+03  0.17120000000E+03 0.  0.
         13    1    1    2    0    0 -0.38381477966E+02  0.13129947564E+02  0.18055605898E+03  0.18505684255E+03  0.10566000000E+00 0. -1.
        994    1    1    2    0    0  0.28189509744E+02  0.29697271298E+01  0.71553774530E+01  0.17367817124E+03  0.17120000000E+03 0.  0.
        998    1    1    2    0    0  0.10191968222E+02 -0.16099674694E+02  0.13122885598E+04  0.13124649862E+04  0.10000000000E+02 0. -1.
</event>
<event>
 5    1  0.1360042E-008  0.3818498E+03  0.7957747E-01  0.3443143E+00
         13   -1    0    0    0    0  0.00000000000E+00  0.00000000000E+00  0.14999999963E+04  0.15000000000E+04  0.10566000000E+00 0.  1.
        994   -1    0    0    0    0 -0.00000000000E+00 -0.00000000000E+00  0.11368683772E-12  0.17120000000E+03  0.17120000000E+03 0.  0.
         13    1    1    2    0    0  0.18511796181E+01 -0.24621102904E+02  0.86530307867E+02  0.89984059242E+02  0.10566000000E+00 0.  1.
        994    1    1    2    0    0 -0.71482716300E+01  0.30767983235E+02  0.65245559862E+01  0.17421187219E+03  0.17120000000E+03 0.  0.
        998    1    1    2    0    0  0.52970920119E+01 -0.61468803316E+01  0.14069451324E+04  0.14070040686E+04  0.10000000000E+02 0.  1.
</event>
<event>
 5    1  0.1360042E-008  0.3852945E+03  0.7957747E-01  0.3428424E+00
         13   -1    0    0    0    0  0.00000000000E+00  0.00000000000E+00  0.14999999963E+04  0.15000000000E+04  0.10566000000E+00 0. -1.
        994   -1    0    0    0    0 -0.00000000000E+00 -0.00000000000E+00  0.11368683772E-12  0.17120000000E+03  0.17120000000E+03 0.  0.
         13    1    1    2    0    0  0.15401470069E+02  0.69613199354E+01  0.94729692207E+02  0.96225729434E+02  0.10566000000E+00 0. -1.
        994    1    1    2    0    0 -0.26107873798E+02  0.21767201409E+02  0.52894225553E+01  0.17462202073E+03  0.17120000000E+03 0.  0.
        998    1    1    2    0    0  0.10706403729E+02 -0.28728521344E+02  0.13999808815E+04  0.14003522498E+04  0.10000000000E+02 0. -1.
</event>
<event>
 5    1  0.1360042E-008  0.3835589E+03  0.7957747E-01  0.3435807E+00
         13   -1    0    0    0    0  0.00000000000E+00  0.00000000000E+00  0.14999999963E+04  0.15000000000E+04  0.10566000000E+00 0. -1.
        994   -1    0    0    0    0 -0.00000000000E+00 -0.00000000000E+00  0.11368683772E-12  0.17120000000E+03  0.17120000000E+03 0.  0.
         13    1    1    2    0    0  0.13029274862E+02 -0.22895010066E+02  0.13739109107E+03  0.13989376883E+03  0.10566000000E+00 0. -1.
        994    1    1    2    0    0 -0.88145474229E+01  0.23592246548E+02  0.44458776410E+01  0.17309967121E+03  0.17120000000E+03 0.  0.
        998    1    1    2    0    0 -0.42147274390E+01 -0.69723648238E+00  0.13581630276E+04  0.13582065600E+04  0.10000000000E+02 0. -1.
</event>
<event>
 5    1  0.1360042E-008  0.3755215E+03  0.7957747E-01  0.3470894E+00
         13   -1    0    0    0    0  0.00000000000E+00  0.00000000000E+00  0.14999999963E+04  0.15000000000E+04  0.10566000000E+00 0.  1.
        994   -1    0    0    0    0 -0.00000000000E+00 -0.00000000000E+00  0.11368683772E-12  0.17120000000E+03  0.17120000000E+03 0.  0.
         13    1    1    2    0    0  0.10783921507E+03  0.63162808624E+02  0.39653868726E+03  0.41576649499E+03  0.10566000000E+00 0.  1.
        994    1    1    2    0    0 -0.10498418489E+03 -0.68259502607E+02  0.72131847976E+02  0.22403901952E+03  0.17120000000E+03 0.  0.
        998    1    1    2    0    0 -0.28550301732E+01  0.50966939838E+01  0.10313294610E+04  0.10313944855E+04  0.10000000000E+02 0.  0.
</event>
<event>
 5    1  0.1360042E-008  0.3751394E+03  0.7957747E-01  0.3472599E+00
         13   -1    0    0    0    0  0.00000000000E+00  0.00000000000E+00  0.14999999963E+04  0.15000000000E+04  0.10566000000E+00 0.  1.
        994   -1    0    0    0    0 -0.00000000000E+00 -0.00000000000E+00  0.11368683772E-12  0.17120000000E+03  0.17120000000E+03 0.  0.
         13    1    1    2    0    0 -0.18421581181E+00  0.53994325198E+02  0.19580286329E+03  0.20311128360E+03  0.10566000000E+00 0.  1.
        994    1    1    2    0    0  0.15742218039E+02 -0.50139551592E+02  0.16049072258E+02  0.17980212675E+03  0.17120000000E+03 0.  0.
        998    1    1    2    0    0 -0.15558002227E+02 -0.38547736052E+01  0.12881480607E+04  0.12882865897E+04  0.10000000000E+02 0.  1.
</event>
<event>
 5    1  0.1360042E-008  0.3769556E+03  0.7957747E-01  0.3464523E+00
         13   -1    0    0    0    0  0.00000000000E+00  0.00000000000E+00  0.14999999963E+04  0.15000000000E+04  0.10566000000E+00 0. -1.
        994   -1    0    0    0    0 -0.00000000000E+00 -0.00000000000E+00  0.11368683772E-12  0.17120000000E+03  0.17120000000E+03 0.  0.
         13    1    1    2    0    0 -0.35759191927E+01  0.22383300512E+02  0.41601434332E+02  0.47376047138E+02  0.10566000000E+00 0. -1.
        994    1    1    2    0    0  0.83204440068E+01 -0.24672134028E+02  0.79706447585E+01  0.17335199787E+03  0.17120000000E+03 0.  0.
        998    1    1    2    0    0 -0.47445248142E+01  0.22888335166E+01  0.14504279172E+04  0.14504719550E+04  0.10000000000E+02 0. -1.
</event>
<event>
 5    1  0.1360042E-008  0.3760085E+03  0.7957747E-01  0.3468725E+00
         13   -1    0    0    0    0  0.00000000000E+00  0.00000000000E+00  0.14999999963E+04  0.15000000000E+04  0.10566000000E+00 0. -1.
        994   -1    0    0    0    0 -0.00000000000E+00 -0.00000000000E+00  0.11368683772E-12  0.17120000000E+03  0.17120000000E+03 0.  0.
         13    1    1    2    0    0 -0.22808412425E+02  0.28918068312E+02  0.11750319374E+03  0.12314012366E+03  0.10566000000E+00 0. -1.
        994    1    1    2    0    0  0.73795303195E+00 -0.49152380990E+01  0.62454404086E+01  0.17138596695E+03  0.17120000000E+03 0.  0.
        998    1    1    2    0    0  0.22070459393E+02 -0.24002830214E+02  0.13762513621E+04  0.13766739094E+04  0.10000000000E+02 0. -1.
</event>
<event>
 5    1  0.1360042E-008  0.3718468E+03  0.7957747E-01  0.3487446E+00
         13   -1    0    0    0    0  0.00000000000E+00  0.00000000000E+00  0.14999999963E+04  0.15000000000E+04  0.10566000000E+00 0. -1.
        994   -1    0    0    0    0 -0.00000000000E+00 -0.00000000000E+00  0.11368683772E-12  0.17120000000E+03  0.17120000000E+03 0.  0.
         13    1    1    2    0    0  0.12626293941E+02  0.13532089804E+02  0.16173827197E+02  0.24579353192E+02  0.10566000000E+00 0. -1.
        994    1    1    2    0    0 -0.45642353082E+02 -0.33256454564E+01  0.15536939128E+02  0.17789075521E+03  0.17120000000E+03 0.  0.
        998    1    1    2    0    0  0.33016059141E+02 -0.10206444347E+02  0.14682892300E+04  0.14687298916E+04  0.10000000000E+02 0. -1.
</event>
<event>
 5    1  0.1360042E-008  0.3731781E+03  0.7957747E-01  0.3481411E+00
         13   -1    0    0    0    0  0.00000000000E+00  0.00000000000E+00  0.14999999963E+04  0.15000000000E+04  0.10566000000E+00 0. -1.
        994   -1    0    0    0    0 -0.00000000000E+00 -0.00000000000E+00  0.11368683772E-12  0.17120000000E+03  0.17120000000E+03 0.  0.
         13    1    1    2    0    0  0.15858650964E+02  0.11143979767E+02  0.92225733241E+01  0.21465137274E+02  0.10566000000E+00 0. -1.
        994    1    1    2    0    0 -0.14173813869E+02 -0.10581869953E+02  0.13736081330E+02  0.17265860217E+03  0.17120000000E+03 0.  0.
        998    1    1    2    0    0 -0.16848370950E+01 -0.56210981328E+00  0.14770413416E+04  0.14770762606E+04  0.10000000000E+02 0. -1.
</event>
<event>
 5    1  0.1360042E-008  0.3814725E+03  0.7957747E-01  0.3444772E+00
         13   -1    0    0    0    0  0.00000000000E+00  0.00000000000E+00  0.14999999963E+04  0.15000000000E+04  0.10566000000E+00 0. -1.
        994   -1    0    0    0    0 -0.00000000000E+00 -0.00000000000E+00  0.11368683772E-12  0.17120000000E+03  0.17120000000E+03 0.  0.
         13    1    1    2    0    0 -0.51483825880E+02  0.53042494363E+02  0.15136419668E+03  0.16844946345E+03  0.10566000000E+00 0. -1.
        994    1    1    2    0    0  0.49289351626E+02 -0.24776301388E+02  0.28310511878E+02  0.18208303155E+03  0.17120000000E+03 0.  0.
        998    1    1    2    0    0  0.21944742539E+01 -0.28266192975E+02  0.13203252877E+04  0.13206675050E+04  0.10000000000E+02 0. -1.
</event>
<event>
 5    1  0.1360042E-008  0.3820722E+03  0.7957747E-01  0.3442185E+00
         13   -1    0    0    0    0  0.00000000000E+00  0.00000000000E+00  0.14999999963E+04  0.15000000000E+04  0.10566000000E+00 0.  1.
        994   -1    0    0    0    0 -0.00000000000E+00 -0.00000000000E+00  0.11368683772E-12  0.17120000000E+03  0.17120000000E+03 0.  0.
         13    1    1    2    0    0  0.17406151137E+01 -0.11702301546E+02  0.21262661195E+02  0.24332807639E+02  0.10566000000E+00 0.  1.
        994    1    1    2    0    0  0.10655125040E+02  0.12710693601E+02  0.40046487751E+01  0.17204816370E+03  0.17120000000E+03 0.  0.
        998    1    1    2    0    0 -0.12395740154E+02 -0.10083920551E+01  0.14747326863E+04  0.14748190287E+04  0.10000000000E+02 0.  1.
</event>
<event>
 5    1  0.1360042E-008  0.3692303E+03  0.7957747E-01  0.3499436E+00
         13   -1    0    0    0    0  0.00000000000E+00  0.00000000000E+00  0.14999999963E+04  0.15000000000E+04  0.10566000000E+00 0.  1.
        994   -1    0    0    0    0 -0.00000000000E+00 -0.00000000000E+00  0.11368683772E-12  0.17120000000E+03  0.17120000000E+03 0.  0.
         13    1    1    2    0    0  0.15050760259E+02  0.20704066582E+02  0.28519325895E+02  0.38321624064E+02  0.10566000000E+00 0.  1.
        994    1    1    2    0    0  0.29387268961E+02 -0.99619412687E+01  0.13896833293E+02  0.17454344395E+03  0.17120000000E+03 0.  0.
        998    1    1    2    0    0 -0.44438029219E+02 -0.10742125314E+02  0.14575838371E+04  0.14583349320E+04  0.10000000000E+02 0.  1.
</event>
<event>
 5    1  0.1360042E-008  0.3803564E+03  0.7957747E-01  0.3449608E+00
         13   -1    0    0    0    0  0.00000000000E+00  0.00000000000E+00  0.14999999963E+04  0.15000000000E+04  0.10566000000E+00 0. -1.
        994   -1    0    0    0    0 -0.00000000000E+00 -0.00000000000E+00  0.11368683772E-12  0.17120000000E+03  0.17120000000E+03 0.  0.
         13    1    1    2    0    0  0.11398272338E+02 -0.14483917808E+02  0.43110012207E+02  0.46884846208E+02  0.10566000000E+00 0. -1.
        994    1    1    2    0    0 -0.25423778963E+01 -0.15016301620E+00  0.39750037567E+01  0.17126507784E+03  0.17120000000E+03 0.  0.
        998    1    1    2    0    0 -0.88558944422E+01  0.14634080825E+02  0.14529149803E+04  0.14530500759E+04  0.10000000000E+02 0. -1.
</event>
<event>
 5    1  0.1378850E-008  0.3861399E+03  0.7957747E-01  0.3424852E+00
         13   -1    0    0    0    0  0.00000000000E+00  0.00000000000E+00  0.14999999963E+04  0.15000000000E+04  0.10566000000E+00 0.  1.
        994   -1    0    0    0    0 -0.00000000000E+00 -0.00000000000E+00  0.11368683772E-12  0.17120000000E+03  0.17120000000E+03 0.  0.
         13    1    1    2    0    0  0.10376848977E+02 -0.37790938966E+01  0.59050125345E+02  0.60074029436E+02  0.10566000000E+00 0.  1.
        994    1    1    2    0    0 -0.37826210805E+01  0.46411785805E+01  0.11827358399E+01  0.17130874941E+03  0.17120000000E+03 0.  0.
        998    1    1    2    0    0 -0.65942278966E+01 -0.86208468394E+00  0.14397671351E+04  0.14398172212E+04  0.10000000000E+02 0.  1.
</event>
<event>
 5    1  0.1360042E-008  0.3765275E+03  0.7957747E-01  0.3466419E+00
         13   -1    0    0    0    0  0.00000000000E+00  0.00000000000E+00  0.14999999963E+04  0.15000000000E+04  0.10566000000E+00 0. -1.
        994   -1    0    0    0    0 -0.00000000000E+00 -0.00000000000E+00  0.11368683772E-12  0.17120000000E+03  0.17120000000E+03 0.  0.
         13    1    1    2    0    0  0.49379733322E+01 -0.42594223305E+02  0.15245774738E+03  0.15837306381E+03  0.10566000000E+00 0. -1.
        994    1    1    2    0    0 -0.15016772840E+00  0.27136401015E+02  0.83907626293E+01  0.17354034605E+03  0.17120000000E+03 0.  0.
        998    1    1    2    0    0 -0.47878056038E+01  0.15457822291E+02  0.13391514863E+04  0.13392865901E+04  0.10000000000E+02 0. -1.
</event>
<event>
 5    1  0.1360042E-008  0.3790756E+03  0.7957747E-01  0.3455193E+00
         13   -1    0    0    0    0  0.00000000000E+00  0.00000000000E+00  0.14999999963E+04  0.15000000000E+04  0.10566000000E+00 0. -1.
        994   -1    0    0    0    0 -0.00000000000E+00 -0.00000000000E+00  0.11368683772E-12  0.17120000000E+03  0.17120000000E+03 0.  0.
         13    1    1    2    0    0 -0.21247069703E+02 -0.13603186600E+03  0.67500270249E+03  0.68890112939E+03  0.10566000000E+00 0. -1.
        994    1    1    2    0    0  0.15171156244E+02  0.16453417339E+03  0.10237615597E+03  0.25902118737E+03  0.17120000000E+03 0.  0.
        998    1    1    2    0    0  0.60759134581E+01 -0.28502307389E+02  0.72262113782E+03  0.72327768324E+03  0.10000000000E+02 0. -1.
</event>
<event>
 5    1  0.1360042E-008  0.3811586E+03  0.7957747E-01  0.3446129E+00
         13   -1    0    0    0    0  0.00000000000E+00  0.00000000000E+00  0.14999999963E+04  0.15000000000E+04  0.10566000000E+00 0. -1.
        994   -1    0    0    0    0 -0.00000000000E+00 -0.00000000000E+00  0.11368683772E-12  0.17120000000E+03  0.17120000000E+03 0.  0.
         13    1    1    2    0    0 -0.71348308062E+01  0.12932676406E+02  0.29379686456E+02  0.32883690029E+02  0.10566000000E+00 0. -1.
        994    1    1    2    0    0 -0.35571434627E+01 -0.13276510722E+02  0.41788047394E+01  0.17180169212E+03  0.17120000000E+03 0.  0.
        998    1    1    2    0    0  0.10691974269E+02  0.34383431536E+00  0.14664415051E+04  0.14665146178E+04  0.10000000000E+02 0. -1.
</event>
<event>
 5    1  0.1360042E-008  0.3694813E+03  0.7957747E-01  0.3498278E+00
         13   -1    0    0    0    0  0.00000000000E+00  0.00000000000E+00  0.14999999963E+04  0.15000000000E+04  0.10566000000E+00 0.  1.
        994   -1    0    0    0    0 -0.00000000000E+00 -0.00000000000E+00  0.11368683772E-12  0.17120000000E+03  0.17120000000E+03 0.  0.
         13    1    1    2    0    0  0.77825601923E+01  0.97735900645E+01  0.23491437310E+01  0.12713022701E+02  0.10566000000E+00 0.  1.
        994    1    1    2    0    0 -0.61225126711E+01 -0.12312359370E+02  0.11324904732E+02  0.17212429469E+03  0.17120000000E+03 0.  0.
        998    1    1    2    0    0 -0.16600475211E+01  0.25387693055E+01  0.14863259478E+04  0.14863626826E+04  0.10000000000E+02 0.  1.
</event>
<event>
 5    1  0.1360042E-008  0.3823746E+03  0.7957747E-01  0.3440884E+00
         13   -1    0    0    0    0  0.00000000000E+00  0.00000000000E+00  0.14999999963E+04  0.15000000000E+04  0.10566000000E+00 0. -1.
        994   -1    0    0    0    0 -0.00000000000E+00 -0.00000000000E+00  0.11368683772E-12  0.17120000000E+03  0.17120000000E+03 0.  0.
         13    1    1    2    0    0 -0.13405796074E+02 -0.19402567002E+02  0.94478704898E+02  0.97377676178E+02  0.10566000000E+00 0. -1.
        994    1    1    2    0    0  0.49824155288E+01  0.12600893699E+02  0.35484880701E+01  0.17177205464E+03  0.17120000000E+03 0.  0.
        998    1    1    2    0    0  0.84233805454E+01  0.68016733024E+01  0.14019728033E+04  0.14020502692E+04  0.10000000000E+02 0. -1.
</event>
<event>
 5    1  0.1360042E-008  0.3821925E+03  0.7957747E-01  0.3441667E+00
         13   -1    0    0    0    0  0.00000000000E+00  0.00000000000E+00  0.14999999963E+04  0.15000000000E+04  0.10566000000E+00 0. -1.
        994   -1    0    0    0    0 -0.00000000000E+00 -0.00000000000E+00  0.11368683772E-12  0.17120000000E+03  0.17120000000E+03 0.  0.
         13    1    1    2    0    0 -0.25665907976E+01  0.15887985072E+02  0.40599229288E+02  0.43672921139E+02  0.10566000000E+00 0. -1.
        994    1    1    2    0    0  0.74716482950E+01 -0.16609526422E+02  0.41321001431E+01  0.17221560948E+03  0.17120000000E+03 0.  0.
        998    1    1    2    0    0 -0.49050574975E+01  0.72154135016E+00  0.14552686668E+04  0.14553114694E+04  0.10000000000E+02 0. -1.
</event>
<event>
 5    1  0.1360042E-008  0.3795384E+03  0.7957747E-01  0.3453171E+00
         13   -1    0    0    0    0  0.00000000000E+00  0.00000000000E+00  0.14999999963E+04  0.15000000000E+04  0.10566000000E+00 0.  1.
        994   -1    0    0    0    0 -0.00000000000E+00 -0.00000000000E+00  0.11368683772E-12  0.17120000000E+03  0.17120000000E+03 0.  0.
         13    1    1    2    0    0  0.40015105105E+01 -0.25249724880E+02  0.73935010883E+02  0.78230158451E+02  0.10566000000E+00 0.  1.
        994    1    1    2    0    0 -0.29718755845E+01  0.13674575168E+02  0.50222162738E+01  0.17184437351E+03  0.17120000000E+03 0.  0.
        998    1    1    2    0    0 -0.10296349260E+01  0.11575149712E+02  0.14210427691E+04  0.14211254680E+04  0.10000000000E+02 0.  1.
</event>
<event>
 5    1  0.1360042E-008  0.3829668E+03  0.7957747E-01  0.3438341E+00
         13   -1    0    0    0    0  0.00000000000E+00  0.00000000000E+00  0.14999999963E+04  0.15000000000E+04  0.10566000000E+00 0.  1.
        994   -1    0    0    0    0 -0.00000000000E+00 -0.00000000000E+00  0.11368683772E-12  0.17120000000E+03  0.17120000000E+03 0.  0.
         13    1    1    2    0    0 -0.10445909269E+02 -0.16841363948E+02  0.73573040169E+02  0.76195485194E+02  0.10566000000E+00 0.  1.
        994    1    1    2    0    0  0.49019632980E+01  0.11744864165E+02  0.31793260139E+01  0.17170183223E+03  0.17120000000E+03 0.  0.
        998    1    1    2    0    0  0.55439459713E+01  0.50964997831E+01  0.14232476301E+04  0.14233026826E+04  0.10000000000E+02 0.  1.
</event>
<event>
 5    1  0.1360042E-008  0.3714711E+03  0.7957747E-01  0.3489157E+00
         13   -1    0    0    0    0  0.00000000000E+00  0.00000000000E+00  0.14999999963E+04  0.15000000000E+04  0.10566000000E+00 0. -1.
        994   -1    0    0    0    0 -0.00000000000E+00 -0.00000000000E+00  0.11368683772E-12  0.17120000000E+03  0.17120000000E+03 0.  0.
         13    1    1    2    0    0  0.49694519357E+02 -0.77828207279E+02  0.37156139917E+03  0.38286376118E+03  0.10566000000E+00 0. -1.
        994    1    1    2    0    0 -0.44853260299E+02  0.80811806471E+02  0.38489093584E+02  0.19832602792E+03  0.17120000000E+03 0.  0.
        998    1    1    2    0    0 -0.48412590580E+01 -0.29835991911E+01  0.10899495035E+04  0.10900102109E+04  0.10000000000E+02 0.  0.
</event>
<event>
 5    1  0.1360042E-008  0.3840007E+03  0.7957747E-01  0.3433922E+00
         13   -1    0    0    0    0  0.00000000000E+00  0.00000000000E+00  0.14999999963E+04  0.15000000000E+04  0.10566000000E+00 0. -1.
        994   -1    0    0    0    0 -0.00000000000E+00 -0.00000000000E+00  0.11368683772E-12  0.17120000000E+03  0.17120000000E+03 0.  0.
         13    1    1    2    0    0 -0.19411116499E+02  0.41527482385E+01  0.93588338185E+02  0.95670397563E+02  0.10566000000E+00 0. -1.
        994    1    1    2    0    0  0.10168825927E+02 -0.18415320958E+01  0.24795360552E+01  0.17152954370E+03  0.17120000000E+03 0.  0.
        998    1    1    2    0    0  0.92422905721E+01 -0.23112161427E+01  0.14039321220E+04  0.14040000587E+04  0.10000000000E+02 0. -1.
</event>
<event>
 5    1  0.1360042E-008  0.3839865E+03  0.7957747E-01  0.3433982E+00
         13   -1    0    0    0    0  0.00000000000E+00  0.00000000000E+00  0.14999999963E+04  0.15000000000E+04  0.10566000000E+00 0. -1.
        994   -1    0    0    0    0 -0.00000000000E+00 -0.00000000000E+00  0.11368683772E-12  0.17120000000E+03  0.17120000000E+03 0.  0.
         13    1    1    2    0    0  0.16942530143E+02 -0.12685148878E+02  0.10075296227E+03  0.10295209031E+03  0.10566000000E+00 0. -1.
        994    1    1    2    0    0 -0.17706843270E+02  0.73656929961E+01  0.33486219286E+01  0.17230333427E+03  0.17120000000E+03 0.  0.
        998    1    1    2    0    0  0.76431312680E+00  0.53194558822E+01  0.13958984121E+04  0.13959445754E+04  0.10000000000E+02 0.  0.
</event>
<event>
 5    1  0.1360042E-008  0.3726523E+03  0.7957747E-01  0.3483790E+00
         13   -1    0    0    0    0  0.00000000000E+00  0.00000000000E+00  0.14999999963E+04  0.15000000000E+04  0.10566000000E+00 0.  1.
        994   -1    0    0    0    0 -0.00000000000E+00 -0.00000000000E+00  0.11368683772E-12  0.17120000000E+03  0.17120000000E+03 0.  0.
         13    1    1    2    0    0 -0.41219204038E+02  0.48182588498E+02  0.33044052762E+03  0.33646922307E+03  0.10566000000E+00 0.  1.
        994    1    1    2    0    0  0.10283937286E+02  0.62522684365E+01  0.83857431997E+01  0.17182727058E+03  0.17120000000E+03 0.  0.
        998    1    1    2    0    0  0.30935266752E+02 -0.54434856934E+02  0.11611737255E+04  0.11629035063E+04  0.10000000000E+02 0.  1.
</event>
<event>
 5    1  0.1360042E-008  0.3793759E+03  0.7957747E-01  0.3453880E+00
         13   -1    0    0    0    0  0.00000000000E+00  0.00000000000E+00  0.14999999963E+04  0.15000000000E+04  0.10566000000E+00 0. -1.
        994   -1    0    0    0    0 -0.00000000000E+00 -0.00000000000E+00  0.11368683772E-12  0.17120000000E+03  0.17120000000E+03 0.  0.
         13    1    1    2    0    0 -0.42628940823E+02 -0.22789211193E+02  0.22912923757E+03  0.23417257187E+03  0.10566000000E+00 0. -1.
        994    1    1    2    0    0  0.42032560607E+02  0.16824081577E+02  0.11345741671E+02  0.17744844808E+03  0.17120000000E+03 0.  0.
        998    1    1    2    0    0  0.59638021543E+00  0.59651296155E+01  0.12595250170E+04  0.12595789800E+04  0.10000000000E+02 0.  0.
</event>
<event>
 5    1  0.1360042E-008  0.3688143E+03  0.7957747E-01  0.3501358E+00
         13   -1    0    0    0    0  0.00000000000E+00  0.00000000000E+00  0.14999999963E+04  0.15000000000E+04  0.10566000000E+00 0.  1.
        994   -1    0    0    0    0 -0.00000000000E+00 -0.00000000000E+00  0.11368683772E-12  0.17120000000E+03  0.17120000000E+03 0.  0.
         13    1    1    2    0    0  0.16485096259E+02  0.13648023698E+02  0.16894298447E+02  0.27266379180E+02  0.10566000000E+00 0.  1.
        994    1    1    2    0    0 -0.32590929644E+02 -0.18213335354E+02  0.15181713470E+02  0.17588012595E+03  0.17120000000E+03 0.  0.
        998    1    1    2    0    0  0.16105833384E+02  0.45653116561E+01  0.14679239844E+04  0.14680534949E+04  0.10000000000E+02 0.  1.
</event>
<event>
 5    1  0.1360042E-008  0.3752958E+03  0.7957747E-01  0.3471901E+00
         13   -1    0    0    0    0  0.00000000000E+00  0.00000000000E+00  0.14999999963E+04  0.15000000000E+04  0.10566000000E+00 0.  1.
        994   -1    0    0    0    0 -0.00000000000E+00 -0.00000000000E+00  0.11368683772E-12  0.17120000000E+03  0.17120000000E+03 0.  0.
         13    1    1    2    0    0 -0.99234546849E+01  0.22349814807E+01  0.50657849439E+01  0.11364129366E+02  0.10566000000E+00 0.  1.
        994    1    1    2    0    0 -0.61427203808E+01 -0.30414691222E+01  0.66864545856E+01  0.17146758359E+03  0.17120000000E+03 0.  0.
        998    1    1    2    0    0  0.16066175066E+02  0.80648764153E+00  0.14882477567E+04  0.14883682870E+04  0.10000000000E+02 0.  1.
</event>
<event>
 5    1  0.1360042E-008  0.3797599E+03  0.7957747E-01  0.3452205E+00
         13   -1    0    0    0    0  0.00000000000E+00  0.00000000000E+00  0.14999999963E+04  0.15000000000E+04  0.10566000000E+00 0. -1.
        994   -1    0    0    0    0 -0.00000000000E+00 -0.00000000000E+00  0.11368683772E-12  0.17120000000E+03  0.17120000000E+03 0.  0.
         13    1    1    2    0    0  0.54973361744E+02 -0.56855433542E+02  0.28262709591E+03  0.29348372584E+03  0.10566000000E+00 0. -1.
        994    1    1    2    0    0  0.33365653933E+02 -0.72584628230E+01  0.20428107148E+02  0.17576319213E+03  0.17120000000E+03 0.  0.
        998    1    1    2    0    0 -0.88339015677E+02  0.64113896365E+02  0.11969447932E+04  0.12019530820E+04  0.10000000000E+02 0. -1.
</event>
<event>
 5    1  0.1360042E-008  0.3823109E+03  0.7957747E-01  0.3441158E+00
         13   -1    0    0    0    0  0.00000000000E+00  0.00000000000E+00  0.14999999963E+04  0.15000000000E+04  0.10566000000E+00 0. -1.
        994   -1    0    0    0    0 -0.00000000000E+00 -0.00000000000E+00  0.11368683772E-12  0.17120000000E+03  0.17120000000E+03 0.  0.
         13    1    1    2    0    0  0.11538315797E+02  0.41312049541E+01  0.24784180285E+02  0.27648984470E+02  0.10566000000E+00 0. -1.
        994    1    1    2    0    0  0.51396216018E+00 -0.29988730436E+01  0.30018753752E+01  0.17125334640E+03  0.17120000000E+03 0.  0.
        998    1    1    2    0    0 -0.12052277958E+02 -0.11323319105E+01  0.14722139406E+04  0.14722976691E+04  0.10000000000E+02 0. -1.
</event>
<event>
 5    1  0.1360042E-008  0.3818692E+03  0.7957747E-01  0.3443060E+00
         13   -1    0    0    0    0  0.00000000000E+00  0.00000000000E+00  0.14999999963E+04  0.15000000000E+04  0.10566000000E+00 0. -1.
        994   -1    0    0    0    0 -0.00000000000E+00 -0.00000000000E+00  0.11368683772E-12  0.17120000000E+03  0.17120000000E+03 0.  0.
         13    1    1    2    0    0  0.15110883700E+02  0.10612217114E+02  0.50274256075E+02  0.53558098792E+02  0.10566000000E+00 0. -1.
        994    1    1    2    0    0 -0.18285309851E+02 -0.11563836382E+02  0.47492087150E+01  0.17262696734E+03  0.17120000000E+03 0.  0.
        998    1    1    2    0    0  0.31744261513E+01  0.95161926797E+00  0.14449765315E+04  0.14450149339E+04  0.10000000000E+02 0. -1.
</event>
<event>
 5    1  0.1360042E-008  0.4087996E+03  0.7957747E-01  0.3334608E+00
         13   -1    0    0    0    0  0.00000000000E+00  0.00000000000E+00  0.14999999963E+04  0.15000000000E+04  0.10566000000E+00 0.  1.
        994   -1    0    0    0    0 -0.00000000000E+00 -0.00000000000E+00  0.11368683772E-12  0.17120000000E+03  0.17120000000E+03 0.  0.
         13    1    1    2    0    0 -0.52345788316E+02 -0.11410138941E+03  0.39548230216E+03  0.41492827224E+03  0.10566000000E+00 0.  1.
        994    1    1    2    0    0  0.26313356661E+02 -0.40002783785E+02  0.42513274401E+02  0.18278247714E+03  0.17120000000E+03 0.  0.
        998    1    1    2    0    0  0.26032431655E+02  0.15410417319E+03  0.10620044197E+04  0.10734892506E+04  0.10000000000E+02 0.  1.
</event>
<event>
 5    1  0.1360042E-008  0.3828581E+03  0.7957747E-01  0.3438807E+00
         13   -1    0    0    0    0  0.00000000000E+00  0.00000000000E+00  0.14999999963E+04  0.15000000000E+04  0.10566000000E+00 0. -1.
        994   -1    0    0    0    0 -0.00000000000E+00 -0.00000000000E+00  0.11368683772E-12  0.17120000000E+03  0.17120000000E+03 0.  0.
         13    1    1    2    0    0  0.32224604821E+02 -0.17254887885E+02  0.20818960286E+03  0.21137426101E+03  0.10566000000E+00 0. -1.
        994    1    1    2    0    0 -0.39791222061E+02  0.11387252487E+02  0.83910044939E+01  0.17633167563E+03  0.17120000000E+03 0.  0.
        998    1    1    2    0    0  0.75666172407E+01  0.58676353981E+01  0.12834193889E+04  0.12834940634E+04  0.10000000000E+02 0. -1.
</event>
<event>
 5    1  0.1360042E-008  0.3684147E+03  0.7957747E-01  0.3503208E+00
         13   -1    0    0    0    0  0.00000000000E+00  0.00000000000E+00  0.14999999963E+04  0.15000000000E+04  0.10566000000E+00 0. -1.
        994   -1    0    0    0    0 -0.00000000000E+00 -0.00000000000E+00  0.11368683772E-12  0.17120000000E+03  0.17120000000E+03 0.  0.
         13    1    1    2    0    0 -0.28458403920E+02  0.19339417660E+02  0.56354776918E+02  0.66028523190E+02  0.10566000000E+00 0. -1.
        994    1    1    2    0    0  0.37961341022E+01 -0.17693764401E+02  0.11242346368E+02  0.17252046338E+03  0.17120000000E+03 0.  0.
        998    1    1    2    0    0  0.24662269818E+02 -0.16456532585E+01  0.14324028730E+04  0.14326510134E+04  0.10000000000E+02 0. -1.
</event>
<event>
 5    1  0.1360042E-008  0.3820495E+03  0.7957747E-01  0.3442283E+00
         13   -1    0    0    0    0  0.00000000000E+00  0.00000000000E+00  0.14999999963E+04  0.15000000000E+04  0.10566000000E+00 0. -1.
        994   -1    0    0    0    0 -0.00000000000E+00 -0.00000000000E+00  0.11368683772E-12  0.17120000000E+03  0.17120000000E+03 0.  0.
         13    1    1    2    0    0 -0.31563181754E+02 -0.40280929980E+01  0.17037243410E+03  0.17331831248E+03  0.10566000000E+00 0. -1.
        994    1    1    2    0    0  0.11881852259E+02  0.47768700245E+01  0.36468693962E+01  0.17171702466E+03  0.17120000000E+03 0.  0.
        998    1    1    2    0    0  0.19681329494E+02 -0.74877702652E+00  0.13259806928E+04  0.13261646629E+04  0.10000000000E+02 0. -1.
</event>
<event>
 5    1  0.1360042E-008  0.3817756E+03  0.7957747E-01  0.3443464E+00
         13   -1    0    0    0    0  0.00000000000E+00  0.00000000000E+00  0.14999999963E+04  0.15000000000E+04  0.10566000000E+00 0.  1.
        994   -1    0    0    0    0 -0.00000000000E+00 -0.00000000000E+00  0.11368683772E-12  0.17120000000E+03  0.17120000000E+03 0.  0.
         13    1    1    2    0    0  0.15001812184E+02  0.16490081250E+01  0.34227907614E+02  0.37407678628E+02  0.10566000000E+00 0.  1.
        994    1    1    2    0    0 -0.71973205297E+01 -0.82328578152E+01  0.36370544771E+01  0.17158743991E+03  0.17120000000E+03 0.  0.
        998    1    1    2    0    0 -0.78044916543E+01  0.65838496901E+01  0.14621350342E+04  0.14622048815E+04  0.10000000000E+02 0.  1.
</event>
<event>
 5    1  0.1360042E-008  0.3845451E+03  0.7957747E-01  0.3431604E+00
         13   -1    0    0    0    0  0.00000000000E+00  0.00000000000E+00  0.14999999963E+04  0.15000000000E+04  0.10566000000E+00 0.  1.
        994   -1    0    0    0    0 -0.00000000000E+00 -0.00000000000E+00  0.11368683772E-12  0.17120000000E+03  0.17120000000E+03 0.  0.
         13    1    1    2    0    0 -0.13727657811E+02  0.92494641257E+01  0.70740530705E+02  0.72651462642E+02  0.10566000000E+00 0.  1.
        994    1    1    2    0    0  0.15566618488E+02 -0.77174379196E+01  0.28510007379E+01  0.17210301178E+03  0.17120000000E+03 0.  0.
        998    1    1    2    0    0 -0.18389606777E+01 -0.15320262061E+01  0.14264084648E+04  0.14264455256E+04  0.10000000000E+02 0.  1.
</event>
<event>
 5    1  0.1360042E-008  0.3802997E+03  0.7957747E-01  0.3449854E+00
         13   -1    0    0    0    0  0.00000000000E+00  0.00000000000E+00  0.14999999963E+04  0.15000000000E+04  0.10566000000E+00 0. -1.
        994   -1    0    0    0    0 -0.00000000000E+00 -0.00000000000E+00  0.11368683772E-12  0.17120000000E+03  0.17120000000E+03 0.  0.
         13    1    1    2    0    0  0.39027682302E+02 -0.24755982319E+02  0.21855820669E+03  0.22339140432E+03  0.10566000000E+00 0. -1.
        994    1    1    2    0    0 -0.49126726721E+02  0.21008361526E+02  0.13575318984E+02  0.17985693153E+03  0.17120000000E+03 0.  0.
        998    1    1    2    0    0  0.10099044419E+02  0.37476207921E+01  0.12678664706E+04  0.12679516642E+04  0.10000000000E+02 0. -1.
</event>
<event>
 5    1  0.1360042E-008  0.3939486E+03  0.7957747E-01  0.3392585E+00
         13   -1    0    0    0    0  0.00000000000E+00  0.00000000000E+00  0.14999999963E+04  0.15000000000E+04  0.10566000000E+00 0. -1.
        994   -1    0    0    0    0 -0.00000000000E+00 -0.00000000000E+00  0.11368683772E-12  0.17120000000E+03  0.17120000000E+03 0.  0.
         13    1    1    2    0    0 -0.37713359214E+02 -0.69645186199E+02  0.13655871345E+03  0.15786400099E+03  0.10566000000E+00 0. -1.
        994    1    1    2    0    0  0.91731613436E+02 -0.29754057009E+02  0.60701679108E+02  0.20565535893E+03  0.17120000000E+03 0.  0.
        998    1    1    2    0    0 -0.54018254222E+02  0.99399243208E+02  0.13027396037E+04  0.13076806401E+04  0.10000000000E+02 0. -1.
</event>
<event>
 5    1  0.1360042E-008  0.3719340E+03  0.7957747E-01  0.3487049E+00
         13   -1    0    0    0    0  0.00000000000E+00  0.00000000000E+00  0.14999999963E+04  0.15000000000E+04  0.10566000000E+00 0.  1.
        994   -1    0    0    0    0 -0.00000000000E+00 -0.00000000000E+00  0.11368683772E-12  0.17120000000E+03  0.17120000000E+03 0.  0.
         13    1    1    2    0    0 -0.56674023984E+01  0.28142255677E+02  0.46738957386E+02  0.54851137692E+02  0.10566000000E+00 0.  1.
        994    1    1    2    0    0 -0.24703657655E+02 -0.23590529527E+02  0.12279845520E+02  0.17500576674E+03  0.17120000000E+03 0.  0.
        998    1    1    2    0    0  0.30371060053E+02 -0.45517261498E+01  0.14409811934E+04  0.14413430956E+04  0.10000000000E+02 0.  1.
</event>
<event>
 5    1  0.1360042E-008  0.3901255E+03  0.7957747E-01  0.3408221E+00
         13   -1    0    0    0    0  0.00000000000E+00  0.00000000000E+00  0.14999999963E+04  0.15000000000E+04  0.10566000000E+00 0.  1.
        994   -1    0    0    0    0 -0.00000000000E+00 -0.00000000000E+00  0.11368683772E-12  0.17120000000E+03  0.17120000000E+03 0.  0.
         13    1    1    2    0    0  0.41044350495E+02  0.37198437928E+02  0.58830635058E+02  0.80804809740E+02  0.10566000000E+00 0.  1.
        994    1    1    2    0    0 -0.48146236015E+02 -0.36849693378E+02  0.35975313197E+02  0.18514757115E+03  0.17120000000E+03 0.  0.
        998    1    1    2    0    0  0.71018855200E+01 -0.34874454973E+00  0.14051940480E+04  0.14052476191E+04  0.10000000000E+02 0.  1.
</event>
<event>
 5    1  0.1360042E-008  0.3812472E+03  0.7957747E-01  0.3445746E+00
         13   -1    0    0    0    0  0.00000000000E+00  0.00000000000E+00  0.14999999963E+04  0.15000000000E+04  0.10566000000E+00 0.  1.
        994   -1    0    0    0    0 -0.00000000000E+00 -0.00000000000E+00  0.11368683772E-12  0.17120000000E+03  0.17120000000E+03 0.  0.
         13    1    1    2    0    0 -0.20284864562E+02 -0.11339472320E+02  0.83562516315E+02  0.86733872621E+02  0.10566000000E+00 0.  1.
        994    1    1    2    0    0 -0.98431695972E+01  0.90345908074E+01  0.40994243824E+01  0.17176948827E+03  0.17120000000E+03 0.  0.
        998    1    1    2    0    0  0.30128034159E+02  0.23048815127E+01  0.14123380556E+04  0.14126966391E+04  0.10000000000E+02 0.  1.
</event>
<event>
 5    1  0.1360042E-008  0.3847809E+03  0.7957747E-01  0.3430602E+00
         13   -1    0    0    0    0  0.00000000000E+00  0.00000000000E+00  0.14999999963E+04  0.15000000000E+04  0.10566000000E+00 0. -1.
        994   -1    0    0    0    0 -0.00000000000E+00 -0.00000000000E+00  0.11368683772E-12  0.17120000000E+03  0.17120000000E+03 0.  0.
         13    1    1    2    0    0  0.27956343002E+01 -0.13230756176E+02  0.55606029337E+02  0.57226830620E+02  0.10566000000E+00 0. -1.
        994    1    1    2    0    0  0.87631174021E+01  0.70229822085E+00  0.19933361553E+01  0.17143715711E+03  0.17120000000E+03 0.  0.
        998    1    1    2    0    0 -0.11558751702E+02  0.12528457955E+02  0.14424006308E+04  0.14425360123E+04  0.10000000000E+02 0. -1.
</event>
<event>
 5    1  0.1360042E-008  0.3817673E+03  0.7957747E-01  0.3443499E+00
         13   -1    0    0    0    0  0.00000000000E+00  0.00000000000E+00  0.14999999963E+04  0.15000000000E+04  0.10566000000E+00 0.  1.
        994   -1    0    0    0    0 -0.00000000000E+00 -0.00000000000E+00  0.11368683772E-12  0.17120000000E+03  0.17120000000E+03 0.  0.
         13    1    1    2    0    0 -0.97505362889E+01 -0.68729280769E+01  0.20754782212E+02  0.23939136304E+02  0.10566000000E+00 0.  1.
        994    1    1    2    0    0  0.41339862585E+01  0.56067336658E+01  0.34049504217E+01  0.17137549122E+03  0.17120000000E+03 0.  0.
        998    1    1    2    0    0  0.56165500304E+01  0.12661944111E+01  0.14758402636E+04  0.14758853725E+04  0.10000000000E+02 0.  1.
</event>
<event>
 5    1  0.1360042E-008  0.3764176E+03  0.7957747E-01  0.3466907E+00
         13   -1    0    0    0    0  0.00000000000E+00  0.00000000000E+00  0.14999999963E+04  0.15000000000E+04  0.10566000000E+00 0.  1.
        994   -1    0    0    0    0 -0.00000000000E+00 -0.00000000000E+00  0.11368683772E-12  0.17120000000E+03  0.17120000000E+03 0.  0.
         13    1    1    2    0    0  0.71804469865E+02 -0.78551830769E+01  0.38712243819E+03  0.39380373171E+03  0.10566000000E+00 0.  1.
        994    1    1    2    0    0 -0.52407982595E+02  0.29475577929E+02  0.18283086305E+02  0.18237082436E+03  0.17120000000E+03 0.  0.
        998    1    1    2    0    0 -0.19396487270E+02 -0.21620394852E+02  0.10945944718E+04  0.10950254439E+04  0.10000000000E+02 0.  1.
</event>
<event>
 5    1  0.1360042E-008  0.3748157E+03  0.7957747E-01  0.3474047E+00
         13   -1    0    0    0    0  0.00000000000E+00  0.00000000000E+00  0.14999999963E+04  0.15000000000E+04  0.10566000000E+00 0. -1.
        994   -1    0    0    0    0 -0.00000000000E+00 -0.00000000000E+00  0.11368683772E-12  0.17120000000E+03  0.17120000000E+03 0.  0.
         13    1    1    2    0    0 -0.89750368731E+01 -0.12615532012E+02  0.14875864512E+02  0.21471037325E+02  0.10566000000E+00 0. -1.
        994    1    1    2    0    0  0.32791329429E+01  0.58848037730E+01  0.69277894177E+01  0.17147249895E+03  0.17120000000E+03 0.  0.
        998    1    1    2    0    0  0.56959039302E+01  0.67307282385E+01  0.14781963423E+04  0.14782564637E+04  0.10000000000E+02 0. -1.
</event>
<event>
 5    1  0.1360042E-008  0.3362724E+03  0.7957747E-01  0.3666876E+00
         13   -1    0    0    0    0  0.00000000000E+00  0.00000000000E+00  0.14999999963E+04  0.15000000000E+04  0.10566000000E+00 0.  1.
        994   -1    0    0    0    0 -0.00000000000E+00 -0.00000000000E+00  0.11368683772E-12  0.17120000000E+03  0.17120000000E+03 0.  0.
         13    1    1    2    0    0  0.72601783483E+01 -0.26588884244E+03  0.72059162070E+03  0.76811579968E+03  0.10566000000E+00 0.  1.
        994    1    1    2    0    0  0.25468269106E+02  0.26585095035E+03  0.35022347760E+03  0.47253707240E+03  0.17120000000E+03 0.  0.
        998    1    1    2    0    0 -0.32728447454E+02  0.37892094557E-01  0.42918489798E+03  0.43054712792E+03  0.10000000000E+02 0.  1.
</event>
<event>
 5    1  0.1360042E-008  0.3836343E+03  0.7957747E-01  0.3435485E+00
         13   -1    0    0    0    0  0.00000000000E+00  0.00000000000E+00  0.14999999963E+04  0.15000000000E+04  0.10566000000E+00 0.  1.
        994   -1    0    0    0    0 -0.00000000000E+00 -0.00000000000E+00  0.11368683772E-12  0.17120000000E+03  0.17120000000E+03 0.  0.
         13    1    1    2    0    0 -0.12573731308E+02 -0.69217264099E+01  0.43335562180E+02  0.45650751680E+02  0.10566000000E+00 0.  1.
        994    1    1    2    0    0  0.11068214930E+02  0.66087572704E+01  0.28588476569E+01  0.17170845659E+03  0.17120000000E+03 0.  0.
        998    1    1    2    0    0  0.15055163775E+01  0.31296913944E+00  0.14538055864E+04  0.14538407917E+04  0.10000000000E+02 0.  1.
</event>
<event>
 5    1  0.1360042E-008  0.3746997E+03  0.7957747E-01  0.3474567E+00
         13   -1    0    0    0    0  0.00000000000E+00  0.00000000000E+00  0.14999999963E+04  0.15000000000E+04  0.10566000000E+00 0. -1.
        994   -1    0    0    0    0 -0.00000000000E+00 -0.00000000000E+00  0.11368683772E-12  0.17120000000E+03  0.17120000000E+03 0.  0.
         13    1    1    2    0    0  0.13513434757E+02  0.11876137291E+03  0.33078157312E+03  0.35171485168E+03  0.10566000000E+00 0. -1.
        994    1    1    2    0    0 -0.46684163719E+02 -0.14399701273E+03  0.10006586845E+03  0.24947378389E+03  0.17120000000E+03 0.  0.
        998    1    1    2    0    0  0.33170728962E+02  0.25235639824E+02  0.10691525547E+04  0.10700113644E+04  0.10000000000E+02 0. -1.
</event>
<event>
 5    1  0.1360042E-008  0.3758247E+03  0.7957747E-01  0.3469543E+00
         13   -1    0    0    0    0  0.00000000000E+00  0.00000000000E+00  0.14999999963E+04  0.15000000000E+04  0.10566000000E+00 0.  1.
        994   -1    0    0    0    0 -0.00000000000E+00 -0.00000000000E+00  0.11368683772E-12  0.17120000000E+03  0.17120000000E+03 0.  0.
         13    1    1    2    0    0 -0.12632828132E+02  0.10114073114E+02  0.17975402340E+02  0.24186960844E+02  0.10566000000E+00 0.  1.
        994    1    1    2    0    0  0.15393023509E+02 -0.84856358518E+01  0.73038009300E+01  0.17225485972E+03  0.17120000000E+03 0.  0.
        998    1    1    2    0    0 -0.27601953771E+01 -0.16284372617E+01  0.14747207930E+04  0.14747581794E+04  0.10000000000E+02 0.  1.
</event>
<event>
 5    1  0.1360042E-008  0.3801261E+03  0.7957747E-01  0.3450610E+00
         13   -1    0    0    0    0  0.00000000000E+00  0.00000000000E+00  0.14999999963E+04  0.15000000000E+04  0.10566000000E+00 0.  1.
        994   -1    0    0    0    0 -0.00000000000E+00 -0.00000000000E+00  0.11368683772E-12  0.17120000000E+03  0.17120000000E+03 0.  0.
         13    1    1    2    0    0  0.18978588085E+02  0.17283662759E+02  0.84642151300E+02  0.88448949936E+02  0.10566000000E+00 0.  1.
        994    1    1    2    0    0  0.54132209203E+01 -0.10535920982E+02  0.45384981154E+01  0.17166929416E+03  0.17120000000E+03 0.  0.
        998    1    1    2    0    0 -0.24391809006E+02 -0.67477417769E+01  0.14108193469E+04  0.14110817559E+04  0.10000000000E+02 0.  1.
</event>
<event>
 5    1  0.1360042E-008  0.3800518E+03  0.7957747E-01  0.3450933E+00
         13   -1    0    0    0    0  0.00000000000E+00  0.00000000000E+00  0.14999999963E+04  0.15000000000E+04  0.10566000000E+00 0.  1.
        994   -1    0    0    0    0 -0.00000000000E+00 -0.00000000000E+00  0.11368683772E-12  0.17120000000E+03  0.17120000000E+03 0.  0.
         13    1    1    2    0    0 -0.10734021047E+02  0.23371302725E+02  0.73367097599E+02  0.77744319234E+02  0.10566000000E+00 0.  1.
        994    1    1    2    0    0  0.35714779808E+01 -0.34719046728E+02  0.81892664291E+01  0.17491332638E+03  0.17120000000E+03 0.  0.
        998    1    1    2    0    0  0.71625430664E+01  0.11347744003E+02  0.14184436323E+04  0.14185423544E+04  0.10000000000E+02 0.  1.
</event>
<event>
 5    1  0.1360042E-008  0.3840752E+03  0.7957747E-01  0.3433604E+00
         13   -1    0    0    0    0  0.00000000000E+00  0.00000000000E+00  0.14999999963E+04  0.15000000000E+04  0.10566000000E+00 0.  1.
        994   -1    0    0    0    0 -0.00000000000E+00 -0.00000000000E+00  0.11368683772E-12  0.17120000000E+03  0.17120000000E+03 0.  0.
         13    1    1    2    0    0  0.13569097382E+02  0.21578148480E+02  0.14340876048E+03  0.14565651596E+03  0.10566000000E+00 0.  1.
        994    1    1    2    0    0 -0.96654472179E+01 -0.23224721925E+02  0.41801275055E+01  0.17308876926E+03  0.17120000000E+03 0.  0.
        998    1    1    2    0    0 -0.39036501641E+01  0.16465734447E+01  0.13524111083E+04  0.13524547148E+04  0.10000000000E+02 0.  1.
</event>
<event>
 5    1  0.1360042E-008  0.3856215E+03  0.7957747E-01  0.3427041E+00
         13   -1    0    0    0    0  0.00000000000E+00  0.00000000000E+00  0.14999999963E+04  0.15000000000E+04  0.10566000000E+00 0. -1.
        994   -1    0    0    0    0 -0.00000000000E+00 -0.00000000000E+00  0.11368683772E-12  0.17120000000E+03  0.17120000000E+03 0.  0.
         13    1    1    2    0    0  0.97403882301E+01  0.83337157711E+01  0.64264432722E+02  0.65530561257E+02  0.10566000000E+00 0. -1.
        994    1    1    2    0    0 -0.53840127699E+00 -0.66021221438E+01  0.14659199726E+01  0.17133437137E+03  0.17120000000E+03 0.  0.
        998    1    1    2    0    0 -0.92019869531E+01 -0.17315936273E+01  0.14342696436E+04  0.14343350674E+04  0.10000000000E+02 0. -1.
</event>
<event>
 5    1  0.1360042E-008  0.3847534E+03  0.7957747E-01  0.3430719E+00
         13   -1    0    0    0    0  0.00000000000E+00  0.00000000000E+00  0.14999999963E+04  0.15000000000E+04  0.10566000000E+00 0. -1.
        994   -1    0    0    0    0 -0.00000000000E+00 -0.00000000000E+00  0.11368683772E-12  0.17120000000E+03  0.17120000000E+03 0.  0.
         13    1    1    2    0    0  0.11638191600E+01 -0.13583917555E+02  0.51707585965E+02  0.53474881033E+02  0.10566000000E+00 0. -1.
        994    1    1    2    0    0 -0.26204744524E+01  0.12974660871E+02  0.23294776811E+01  0.17172674567E+03  0.17120000000E+03 0.  0.
        998    1    1    2    0    0  0.14566552924E+01  0.60925668413E+00  0.14459629326E+04  0.14459983733E+04  0.10000000000E+02 0. -1.
</event>
<event>
 5    1  0.1360042E-008  0.3840951E+03  0.7957747E-01  0.3433519E+00
         13   -1    0    0    0    0  0.00000000000E+00  0.00000000000E+00  0.14999999963E+04  0.15000000000E+04  0.10566000000E+00 0. -1.
        994   -1    0    0    0    0 -0.00000000000E+00 -0.00000000000E+00  0.11368683772E-12  0.17120000000E+03  0.17120000000E+03 0.  0.
         13    1    1    2    0    0  0.19825561472E+01 -0.17336111432E+02  0.71611897280E+02  0.73707165761E+02  0.10566000000E+00 0. -1.
        994    1    1    2    0    0  0.23075733359E+01  0.14443025466E+02  0.27859597856E+01  0.17184623200E+03  0.17120000000E+03 0.  0.
        998    1    1    2    0    0 -0.42901294830E+01  0.28930859667E+01  0.14256021392E+04  0.14256466022E+04  0.10000000000E+02 0. -1.
</event>
<event>
 5    1  0.1516322E-008  0.3864952E+03  0.7957747E-01  0.3423356E+00
         13   -1    0    0    0    0  0.00000000000E+00  0.00000000000E+00  0.14999999963E+04  0.15000000000E+04  0.10566000000E+00 0. -1.
        994   -1    0    0    0    0 -0.00000000000E+00 -0.00000000000E+00  0.11368683772E-12  0.17120000000E+03  0.17120000000E+03 0.  0.
         13    1    1    2    0    0  0.95719922467E+01  0.29516259800E+01  0.59241194866E+02  0.60082155959E+02  0.10566000000E+00 0. -1.
        994    1    1    2    0    0 -0.46488489362E+01  0.35427652230E+01  0.10014218947E+01  0.17130267315E+03  0.17120000000E+03 0.  0.
        998    1    1    2    0    0 -0.49231433105E+01 -0.64943912030E+01  0.14397573795E+04  0.14398151709E+04  0.10000000000E+02 0. -1.
</event>
<event>
 5    1  0.1360042E-008  0.3764201E+03  0.7957747E-01  0.3466896E+00
         13   -1    0    0    0    0  0.00000000000E+00  0.00000000000E+00  0.14999999963E+04  0.15000000000E+04  0.10566000000E+00 0.  1.
        994   -1    0    0    0    0 -0.00000000000E+00 -0.00000000000E+00  0.11368683772E-12  0.17120000000E+03  0.17120000000E+03 0.  0.
         13    1    1    2    0    0  0.35021836160E+02  0.33437033926E+02  0.20491433101E+03  0.21055749444E+03  0.10566000000E+00 0.  1.
        994    1    1    2    0    0  0.66138732674E+01 -0.37992018361E+02  0.10998854693E+02  0.17583387496E+03  0.17120000000E+03 0.  0.
        998    1    1    2    0    0 -0.41635709427E+02  0.45549844350E+01  0.12840868106E+04  0.12848086306E+04  0.10000000000E+02 0.  1.
</event>
<event>
 5    1  0.1360042E-008  0.3810063E+03  0.7957747E-01  0.3446788E+00
         13   -1    0    0    0    0  0.00000000000E+00  0.00000000000E+00  0.14999999963E+04  0.15000000000E+04  0.10566000000E+00 0. -1.
        994   -1    0    0    0    0 -0.00000000000E+00 -0.00000000000E+00  0.11368683772E-12  0.17120000000E+03  0.17120000000E+03 0.  0.
         13    1    1    2    0    0 -0.16950906855E+02 -0.10181827274E+03  0.25884040266E+03  0.27866226713E+03  0.10566000000E+00 0. -1.
        994    1    1    2    0    0  0.30144602818E+02  0.96323880572E+02  0.54941840846E+02  0.20619173825E+03  0.17120000000E+03 0.  0.
        998    1    1    2    0    0 -0.13193695963E+02  0.54943921729E+01  0.11862177528E+04  0.11863459946E+04  0.10000000000E+02 0. -1.
</event>
<event>
 5    1  0.1360042E-008  0.3770854E+03  0.7957747E-01  0.3463948E+00
         13   -1    0    0    0    0  0.00000000000E+00  0.00000000000E+00  0.14999999963E+04  0.15000000000E+04  0.10566000000E+00 0. -1.
        994   -1    0    0    0    0 -0.00000000000E+00 -0.00000000000E+00  0.11368683772E-12  0.17120000000E+03  0.17120000000E+03 0.  0.
         13    1    1    2    0    0 -0.12836842612E+02  0.18272459008E+02  0.37982606920E+02  0.44060831573E+02  0.10566000000E+00 0. -1.
        994    1    1    2    0    0  0.20958929607E+02 -0.45433857657E+02  0.14109306698E+02  0.17891904507E+03  0.17120000000E+03 0.  0.
        998    1    1    2    0    0 -0.81220869954E+01  0.27161398649E+02  0.14479080827E+04  0.14482201234E+04  0.10000000000E+02 0. -1.
</event>
<event>
 5    1  0.1360042E-008  0.3701959E+03  0.7957747E-01  0.3494991E+00
         13   -1    0    0    0    0  0.00000000000E+00  0.00000000000E+00  0.14999999963E+04  0.15000000000E+04  0.10566000000E+00 0. -1.
        994   -1    0    0    0    0 -0.00000000000E+00 -0.00000000000E+00  0.11368683772E-12  0.17120000000E+03  0.17120000000E+03 0.  0.
         13    1    1    2    0    0 -0.41236518786E+02 -0.29583424909E+02  0.10358526537E+03  0.11534967654E+03  0.10566000000E+00 0. -1.
        994    1    1    2    0    0  0.58572479695E+02  0.14046574867E+02  0.23844828906E+02  0.18304659928E+03  0.17120000000E+03 0.  0.
        998    1    1    2    0    0 -0.17335960910E+02  0.15536850042E+02  0.13725699020E+04  0.13728037242E+04  0.10000000000E+02 0. -1.
</event>
<event>
 5    1  0.1360042E-008  0.3854204E+03  0.7957747E-01  0.3427891E+00
         13   -1    0    0    0    0  0.00000000000E+00  0.00000000000E+00  0.14999999963E+04  0.15000000000E+04  0.10566000000E+00 0. -1.
        994   -1    0    0    0    0 -0.00000000000E+00 -0.00000000000E+00  0.11368683772E-12  0.17120000000E+03  0.17120000000E+03 0.  0.
         13    1    1    2    0    0  0.78457742639E+01  0.11781284355E+02  0.80292709763E+02  0.81530885191E+02  0.10566000000E+00 0. -1.
        994    1    1    2    0    0 -0.82065017520E+01  0.13586268999E+02  0.22493890538E+01  0.17194892593E+03  0.17120000000E+03 0.  0.
        998    1    1    2    0    0  0.36072748811E+00 -0.25367553354E+02  0.14174578975E+04  0.14177201889E+04  0.10000000000E+02 0. -1.
</event>
<event>
 5    1  0.1360042E-008  0.3812971E+03  0.7957747E-01  0.3445530E+00
         13   -1    0    0    0    0  0.00000000000E+00  0.00000000000E+00  0.14999999963E+04  0.15000000000E+04  0.10566000000E+00 0. -1.
        994   -1    0    0    0    0 -0.00000000000E+00 -0.00000000000E+00  0.11368683772E-12  0.17120000000E+03  0.17120000000E+03 0.  0.
         13    1    1    2    0    0  0.13366449893E+02 -0.73869695138E+01  0.32874465600E+02  0.36248737272E+02  0.10566000000E+00 0. -1.
        994    1    1    2    0    0 -0.43557400725E+01  0.76993399815E+00  0.35449421331E+01  0.17129381742E+03  0.17120000000E+03 0.  0.
        998    1    1    2    0    0 -0.90107098205E+01  0.66170355156E+01  0.14635805885E+04  0.14636574453E+04  0.10000000000E+02 0. -1.
</event>
<event>
 5    1  0.1360042E-008  0.3777421E+03  0.7957747E-01  0.3461049E+00
         13   -1    0    0    0    0  0.00000000000E+00  0.00000000000E+00  0.14999999963E+04  0.15000000000E+04  0.10566000000E+00 0. -1.
        994   -1    0    0    0    0 -0.00000000000E+00 -0.00000000000E+00  0.11368683772E-12  0.17120000000E+03  0.17120000000E+03 0.  0.
         13    1    1    2    0    0  0.26943572891E+02 -0.35424386089E+00  0.68728056185E+02  0.73821666737E+02  0.10566000000E+00 0. -1.
        994    1    1    2    0    0 -0.99519066279E+01 -0.70062698825E+00  0.56125805618E+01  0.17158226128E+03  0.17120000000E+03 0.  0.
        998    1    1    2    0    0 -0.16991666263E+02  0.10548708491E+01  0.14256593595E+04  0.14257960720E+04  0.10000000000E+02 0. -1.
</event>
<event>
 5    1  0.1360042E-008  0.3689526E+03  0.7957747E-01  0.3500718E+00
         13   -1    0    0    0    0  0.00000000000E+00  0.00000000000E+00  0.14999999963E+04  0.15000000000E+04  0.10566000000E+00 0.  1.
        994   -1    0    0    0    0 -0.00000000000E+00 -0.00000000000E+00  0.11368683772E-12  0.17120000000E+03  0.17120000000E+03 0.  0.
         13    1    1    2    0    0 -0.14071959078E+02 -0.53488291530E+01  0.60981562874E+01  0.16242803937E+02  0.10566000000E+00 0.  1.
        994    1    1    2    0    0  0.14337650257E+02  0.11308117664E+02  0.11548324131E+02  0.17255794833E+03  0.17120000000E+03 0.  0.
        998    1    1    2    0    0 -0.26569117895E+00 -0.59592885109E+01  0.14823535159E+04  0.14823992477E+04  0.10000000000E+02 0.  1.
</event>
<event>
 5    1  0.1360042E-008  0.3853924E+03  0.7957747E-01  0.3428010E+00
         13   -1    0    0    0    0  0.00000000000E+00  0.00000000000E+00  0.14999999963E+04  0.15000000000E+04  0.10566000000E+00 0. -1.
        994   -1    0    0    0    0 -0.00000000000E+00 -0.00000000000E+00  0.11368683772E-12  0.17120000000E+03  0.17120000000E+03 0.  0.
         13    1    1    2    0    0  0.12715721046E+02  0.71075713592E+01  0.72813524527E+02  0.74256499045E+02  0.10566000000E+00 0. -1.
        994    1    1    2    0    0 -0.69422613935E+01 -0.12865277973E+02  0.21377009068E+01  0.17183631786E+03  0.17120000000E+03 0.  0.
        998    1    1    2    0    0 -0.57734596529E+01  0.57577066137E+01  0.14250487708E+04  0.14251071831E+04  0.10000000000E+02 0. -1.
</event>
<event>
 5    1  0.1360042E-008  0.3750763E+03  0.7957747E-01  0.3472881E+00
         13   -1    0    0    0    0  0.00000000000E+00  0.00000000000E+00  0.14999999963E+04  0.15000000000E+04  0.10566000000E+00 0. -1.
        994   -1    0    0    0    0 -0.00000000000E+00 -0.00000000000E+00  0.11368683772E-12  0.17120000000E+03  0.17120000000E+03 0.  0.
         13    1    1    2    0    0 -0.14607315054E+02  0.14413700850E+02  0.28143791505E+02  0.34831201380E+02  0.10566000000E+00 0. -1.
        994    1    1    2    0    0  0.17930144970E+02 -0.17393894092E+02  0.87631127576E+01  0.17323472457E+03  0.17120000000E+03 0.  0.
        998    1    1    2    0    0 -0.33228299156E+01  0.29801932412E+01  0.14630930920E+04  0.14631340741E+04  0.10000000000E+02 0. -1.
</event>
<event>
 5    1  0.1360042E-008  0.3833882E+03  0.7957747E-01  0.3436537E+00
         13   -1    0    0    0    0  0.00000000000E+00  0.00000000000E+00  0.14999999963E+04  0.15000000000E+04  0.10566000000E+00 0.  1.
        994   -1    0    0    0    0 -0.00000000000E+00 -0.00000000000E+00  0.11368683772E-12  0.17120000000E+03  0.17120000000E+03 0.  0.
         13    1    1    2    0    0  0.74182400985E+01 -0.71851739738E+01  0.21301805870E+02  0.23673510693E+02  0.10566000000E+00 0.  1.
        994    1    1    2    0    0 -0.55717211008E+01 -0.31292946431E+00  0.25354617387E+01  0.17130969198E+03  0.17120000000E+03 0.  0.
        998    1    1    2    0    0 -0.18465189977E+01  0.74981034381E+01  0.14761627287E+04  0.14762167973E+04  0.10000000000E+02 0.  1.
</event>
<event>
 5    1  0.1360042E-008  0.3695023E+03  0.7957747E-01  0.3498181E+00
         13   -1    0    0    0    0  0.00000000000E+00  0.00000000000E+00  0.14999999963E+04  0.15000000000E+04  0.10566000000E+00 0.  1.
        994   -1    0    0    0    0 -0.00000000000E+00 -0.00000000000E+00  0.11368683772E-12  0.17120000000E+03  0.17120000000E+03 0.  0.
         13    1    1    2    0    0 -0.17019295313E+02  0.67197400456E+01  0.13955075291E+02  0.23012314305E+02  0.10566000000E+00 0.  1.
        994    1    1    2    0    0 -0.50526327580E+01  0.47371310740E+00  0.96186652837E+01  0.17154507345E+03  0.17120000000E+03 0.  0.
        998    1    1    2    0    0  0.22071928071E+02 -0.71934531530E+01  0.14764262557E+04  0.14766426122E+04  0.10000000000E+02 0.  1.
</event>
<event>
 5    1  0.1360042E-008  0.3858557E+03  0.7957747E-01  0.3426051E+00
         13   -1    0    0    0    0  0.00000000000E+00  0.00000000000E+00  0.14999999963E+04  0.15000000000E+04  0.10566000000E+00 0. -1.
        994   -1    0    0    0    0 -0.00000000000E+00 -0.00000000000E+00  0.11368683772E-12  0.17120000000E+03  0.17120000000E+03 0.  0.
         13    1    1    2    0    0  0.89306540471E+01  0.81915403672E+01  0.61561457084E+02  0.62742984290E+02  0.10566000000E+00 0. -1.
        994    1    1    2    0    0 -0.70977241849E+01 -0.39393935262E+01  0.14220229976E+01  0.17139824579E+03  0.17120000000E+03 0.  0.
        998    1    1    2    0    0 -0.18329298622E+01 -0.42521468410E+01  0.14370165162E+04  0.14370587699E+04  0.10000000000E+02 0. -1.
</event>
<event>
 5    1  0.1360042E-008  0.3834882E+03  0.7957747E-01  0.3436109E+00
         13   -1    0    0    0    0  0.00000000000E+00  0.00000000000E+00  0.14999999963E+04  0.15000000000E+04  0.10566000000E+00 0. -1.
        994   -1    0    0    0    0 -0.00000000000E+00 -0.00000000000E+00  0.11368683772E-12  0.17120000000E+03  0.17120000000E+03 0.  0.
         13    1    1    2    0    0  0.26031005938E+02  0.85096935231E+01  0.15475753927E+03  0.15716213055E+03  0.10566000000E+00 0. -1.
        994    1    1    2    0    0 -0.20229888068E+02  0.36026736585E+01  0.37792250567E+01  0.17247014284E+03  0.17120000000E+03 0.  0.
        998    1    1    2    0    0 -0.58011178706E+01 -0.12112367182E+02  0.13414632319E+04  0.13415677266E+04  0.10000000000E+02 0. -1.
</event>
<event>
 5    1  0.1360042E-008  0.3851940E+03  0.7957747E-01  0.3428850E+00
         13   -1    0    0    0    0  0.00000000000E+00  0.00000000000E+00  0.14999999963E+04  0.15000000000E+04  0.10566000000E+00 0. -1.
        994   -1    0    0    0    0 -0.00000000000E+00 -0.00000000000E+00  0.11368683772E-12  0.17120000000E+03  0.17120000000E+03 0.  0.
         13    1    1    2    0    0 -0.16922291549E+02 -0.41431760236E+01  0.10371704926E+03  0.10517018270E+03  0.10566000000E+00 0. -1.
        994    1    1    2    0    0  0.49928422678E+01  0.37377364051E+01  0.16616880178E+01  0.17132162839E+03  0.17120000000E+03 0.  0.
        998    1    1    2    0    0  0.11929449281E+02  0.40543961845E+00  0.13946212590E+04  0.13947081889E+04  0.10000000000E+02 0. -1.
</event>
<event>
 5    1  0.1360042E-008  0.3813520E+03  0.7957747E-01  0.3445292E+00
         13   -1    0    0    0    0  0.00000000000E+00  0.00000000000E+00  0.14999999963E+04  0.15000000000E+04  0.10566000000E+00 0. -1.
        994   -1    0    0    0    0 -0.00000000000E+00 -0.00000000000E+00  0.11368683772E-12  0.17120000000E+03  0.17120000000E+03 0.  0.
         13    1    1    2    0    0 -0.10512340094E+02  0.76504721495E+01  0.22936636711E+02  0.26365498023E+02  0.10566000000E+00 0. -1.
        994    1    1    2    0    0  0.10251338352E+02 -0.56609713527E+01  0.39087235295E+01  0.17164455906E+03  0.17120000000E+03 0.  0.
        998    1    1    2    0    0  0.26100174246E+00 -0.19895007967E+01  0.14731546360E+04  0.14731899429E+04  0.10000000000E+02 0. -1.
</event>
<event>
 5    1  0.1360042E-008  0.3855015E+03  0.7957747E-01  0.3427548E+00
         13   -1    0    0    0    0  0.00000000000E+00  0.00000000000E+00  0.14999999963E+04  0.15000000000E+04  0.10566000000E+00 0. -1.
        994   -1    0    0    0    0 -0.00000000000E+00 -0.00000000000E+00  0.11368683772E-12  0.17120000000E+03  0.17120000000E+03 0.  0.
         13    1    1    2    0    0  0.10726770372E+02  0.20653098951E+01  0.55027023572E+02  0.56100923298E+02  0.10566000000E+00 0. -1.
        994    1    1    2    0    0  0.32525494642E+02 -0.22706607070E+02  0.65648005871E+01  0.17585799502E+03  0.17120000000E+03 0.  0.
        998    1    1    2    0    0 -0.43252265014E+02  0.20641297175E+02  0.14384081721E+04  0.14392410817E+04  0.10000000000E+02 0. -1.
</event>
<event>
 5    1  0.1360042E-008  0.4004176E+03  0.7957747E-01  0.3366805E+00
         13   -1    0    0    0    0  0.00000000000E+00  0.00000000000E+00  0.14999999963E+04  0.15000000000E+04  0.10566000000E+00 0. -1.
        994   -1    0    0    0    0 -0.00000000000E+00 -0.00000000000E+00  0.11368683772E-12  0.17120000000E+03  0.17120000000E+03 0.  0.
         13    1    1    2    0    0  0.23684856682E+01  0.50789253241E+02  0.35118487916E+02  0.61793829196E+02  0.10566000000E+00 0. -1.
        994    1    1    2    0    0 -0.38828819337E+00 -0.48778223916E+02  0.37416753219E+02  0.18190359897E+03  0.17120000000E+03 0.  0.
        998    1    1    2    0    0 -0.19801974748E+01 -0.20110293250E+01  0.14274647551E+04  0.14275025718E+04  0.10000000000E+02 0. -1.
</event>
<event>
 5    1  0.1360042E-008  0.3802000E+03  0.7957747E-01  0.3450288E+00
         13   -1    0    0    0    0  0.00000000000E+00  0.00000000000E+00  0.14999999963E+04  0.15000000000E+04  0.10566000000E+00 0. -1.
        994   -1    0    0    0    0 -0.00000000000E+00 -0.00000000000E+00  0.11368683772E-12  0.17120000000E+03  0.17120000000E+03 0.  0.
         13    1    1    2    0    0 -0.51997376535E+01  0.14618341559E+02  0.28469287556E+02  0.32422903626E+02  0.10566000000E+00 0. -1.
        994    1    1    2    0    0  0.30766866800E+01 -0.74262011936E+01  0.42480965756E+01  0.17144124588E+03  0.17120000000E+03 0.  0.
        998    1    1    2    0    0  0.21230509735E+01 -0.71921403649E+01  0.14672826121E+04  0.14673358505E+04  0.10000000000E+02 0. -1.
</event>
<event>
 5    1  0.1360042E-008  0.3779806E+03  0.7957747E-01  0.3459999E+00
         13   -1    0    0    0    0  0.00000000000E+00  0.00000000000E+00  0.14999999963E+04  0.15000000000E+04  0.10566000000E+00 0. -1.
        994   -1    0    0    0    0 -0.00000000000E+00 -0.00000000000E+00  0.11368683772E-12  0.17120000000E+03  0.17120000000E+03 0.  0.
         13    1    1    2    0    0  0.98246290759E+00 -0.12079990106E+02  0.12065506801E+02  0.17102017797E+02  0.10566000000E+00 0. -1.
        994    1    1    2    0    0 -0.14766521469E+01  0.49342591200E+01  0.52452861828E+01  0.17135775571E+03  0.17120000000E+03 0.  0.
        998    1    1    2    0    0  0.49418923927E+00  0.71457309865E+01  0.14826892033E+04  0.14827402265E+04  0.10000000000E+02 0. -1.
</event>
<event>
 5    1  0.1360042E-008  0.3813895E+03  0.7957747E-01  0.3445131E+00
         13   -1    0    0    0    0  0.00000000000E+00  0.00000000000E+00  0.14999999963E+04  0.15000000000E+04  0.10566000000E+00 0. -1.
        994   -1    0    0    0    0 -0.00000000000E+00 -0.00000000000E+00  0.11368683772E-12  0.17120000000E+03  0.17120000000E+03 0.  0.
         13    1    1    2    0    0 -0.89091610721E+01 -0.15719779020E+02  0.46736168784E+02  0.50107536759E+02  0.10566000000E+00 0. -1.
        994    1    1    2    0    0  0.62743671133E+01  0.74985955469E+01  0.37515673989E+01  0.17152000139E+03  0.17120000000E+03 0.  0.
        998    1    1    2    0    0  0.26347939588E+01  0.82211834727E+01  0.14495122601E+04  0.14495724619E+04  0.10000000000E+02 0. -1.
</event>
<event>
 5    1  0.1360042E-008  0.3783271E+03  0.7957747E-01  0.3458475E+00
         13   -1    0    0    0    0  0.00000000000E+00  0.00000000000E+00  0.14999999963E+04  0.15000000000E+04  0.10566000000E+00 0. -1.
        994   -1    0    0    0    0 -0.00000000000E+00 -0.00000000000E+00  0.11368683772E-12  0.17120000000E+03  0.17120000000E+03 0.  0.
         13    1    1    2    0    0  0.10863700106E+02  0.52825001778E+01  0.12884610090E+02  0.17662081681E+02  0.10566000000E+00 0. -1.
        994    1    1    2    0    0  0.53389826326E+01  0.23190365716E+01  0.50939140168E+01  0.17137464989E+03  0.17120000000E+03 0.  0.
        998    1    1    2    0    0 -0.16202682739E+02 -0.76015367494E+01  0.14820214722E+04  0.14821632684E+04  0.10000000000E+02 0. -1.
</event>
<event>
 5    1  0.1360042E-008  0.3880991E+03  0.7957747E-01  0.3416634E+00
         13   -1    0    0    0    0  0.00000000000E+00  0.00000000000E+00  0.14999999963E+04  0.15000000000E+04  0.10566000000E+00 0. -1.
        994   -1    0    0    0    0 -0.00000000000E+00 -0.00000000000E+00  0.11368683772E-12  0.17120000000E+03  0.17120000000E+03 0.  0.
         13    1    1    2    0    0  0.12042493586E+03  0.96834393327E+00  0.27504435300E+03  0.30025407599E+03  0.10566000000E+00 0. -1.
        994    1    1    2    0    0 -0.11924444932E+03 -0.67211184690E+01  0.76329452781E+02  0.22226119204E+03  0.17120000000E+03 0.  0.
        998    1    1    2    0    0 -0.11804865387E+01  0.57527745358E+01  0.11486261905E+04  0.11486847320E+04  0.10000000000E+02 0. -1.
</event>
<event>
 5    1  0.1360042E-008  0.3690851E+03  0.7957747E-01  0.3500106E+00
         13   -1    0    0    0    0  0.00000000000E+00  0.00000000000E+00  0.14999999963E+04  0.15000000000E+04  0.10566000000E+00 0. -1.
        994   -1    0    0    0    0 -0.00000000000E+00 -0.00000000000E+00  0.11368683772E-12  0.17120000000E+03  0.17120000000E+03 0.  0.
         13    1    1    2    0    0  0.34412032963E+02  0.15524020686E+01  0.57761554005E+02  0.67253299175E+02  0.10566000000E+00 0. -1.
        994    1    1    2    0    0 -0.18060564112E+02 -0.27159113424E+02  0.13446917038E+02  0.17479719962E+03  0.17120000000E+03 0.  0.
        998    1    1    2    0    0 -0.16351468852E+02  0.25606711356E+02  0.14287915252E+04  0.14291495012E+04  0.10000000000E+02 0. -1.
</event>
<event>
 5    1  0.1360042E-008  0.3847745E+03  0.7957747E-01  0.3430629E+00
         13   -1    0    0    0    0  0.00000000000E+00  0.00000000000E+00  0.14999999963E+04  0.15000000000E+04  0.10566000000E+00 0. -1.
        994   -1    0    0    0    0 -0.00000000000E+00 -0.00000000000E+00  0.11368683772E-12  0.17120000000E+03  0.17120000000E+03 0.  0.
         13    1    1    2    0    0  0.14604604777E+01  0.11893587192E+02  0.40705486040E+02  0.42432748189E+02  0.10566000000E+00 0. -1.
        994    1    1    2    0    0 -0.38002991655E+01 -0.91083231715E+01  0.20627534738E+01  0.17149664363E+03  0.17120000000E+03 0.  0.
        998    1    1    2    0    0  0.23398386878E+01 -0.27852640210E+01  0.14572317568E+04  0.14572706082E+04  0.10000000000E+02 0. -1.
</event>
<event>
 5    1  0.1360042E-008  0.3855835E+03  0.7957747E-01  0.3427201E+00
         13   -1    0    0    0    0  0.00000000000E+00  0.00000000000E+00  0.14999999963E+04  0.15000000000E+04  0.10566000000E+00 0.  1.
        994   -1    0    0    0    0 -0.00000000000E+00 -0.00000000000E+00  0.11368683772E-12  0.17120000000E+03  0.17120000000E+03 0.  0.
         13    1    1    2    0    0  0.94977256763E+01 -0.37094017132E+01  0.39385325821E+02  0.40683921986E+02  0.10566000000E+00 0.  1.
        994    1    1    2    0    0 -0.37287430651E+01  0.34969621483E+01  0.14265211773E+01  0.17128224436E+03  0.17120000000E+03 0.  0.
        998    1    1    2    0    0 -0.57689826112E+01  0.21243956490E+00  0.14591881493E+04  0.14592338337E+04  0.10000000000E+02 0.  1.
</event>
<event>
 5    1  0.1360042E-008  0.3831140E+03  0.7957747E-01  0.3437711E+00
         13   -1    0    0    0    0  0.00000000000E+00  0.00000000000E+00  0.14999999963E+04  0.15000000000E+04  0.10566000000E+00 0. -1.
        994   -1    0    0    0    0 -0.00000000000E+00 -0.00000000000E+00  0.11368683772E-12  0.17120000000E+03  0.17120000000E+03 0.  0.
         13    1    1    2    0    0  0.17610099171E+02  0.17467604899E+02  0.12798099418E+03  0.13036249019E+03  0.10566000000E+00 0. -1.
        994    1    1    2    0    0 -0.76560343993E+00 -0.65690300181E+01  0.27141633073E+01  0.17134919021E+03  0.17120000000E+03 0.  0.
        998    1    1    2    0    0 -0.16844495731E+02 -0.10898574881E+02  0.13693048388E+04  0.13694883196E+04  0.10000000000E+02 0. -1.
</event>
<event>
 5    1  0.1360042E-008  0.3801321E+03  0.7957747E-01  0.3450584E+00
         13   -1    0    0    0    0  0.00000000000E+00  0.00000000000E+00  0.14999999963E+04  0.15000000000E+04  0.10566000000E+00 0.  1.
        994   -1    0    0    0    0 -0.00000000000E+00 -0.00000000000E+00  0.11368683772E-12  0.17120000000E+03  0.17120000000E+03 0.  0.
         13    1    1    2    0    0  0.29815258257E+02 -0.30350241536E+02  0.49688260457E+02  0.65414227638E+02  0.10566000000E+00 0.  1.
        994    1    1    2    0    0  0.10591382107E+02  0.44757189470E+02  0.24108323467E+02  0.17890230475E+03  0.17120000000E+03 0.  0.
        998    1    1    2    0    0 -0.40406640365E+02 -0.14406947934E+02  0.14262034124E+04  0.14268834676E+04  0.10000000000E+02 0.  1.
</event>
<event>
 5    1  0.1360042E-008  0.3858574E+03  0.7957747E-01  0.3426044E+00
         13   -1    0    0    0    0  0.00000000000E+00  0.00000000000E+00  0.14999999963E+04  0.15000000000E+04  0.10566000000E+00 0.  1.
        994   -1    0    0    0    0 -0.00000000000E+00 -0.00000000000E+00  0.11368683772E-12  0.17120000000E+03  0.17120000000E+03 0.  0.
         13    1    1    2    0    0  0.38212903494E+01 -0.10343827343E+02  0.55024619922E+02  0.56118775696E+02  0.10566000000E+00 0.  1.
        994    1    1    2    0    0 -0.84147068002E+01 -0.71070023939E+01  0.16030241432E+01  0.17156143640E+03  0.17120000000E+03 0.  0.
        998    1    1    2    0    0  0.45934164508E+01  0.17450829737E+02  0.14433723522E+04  0.14435197879E+04  0.10000000000E+02 0.  1.
</event>
<event>
 5    1  0.1360042E-008  0.3715319E+03  0.7957747E-01  0.3488880E+00
         13   -1    0    0    0    0  0.00000000000E+00  0.00000000000E+00  0.14999999963E+04  0.15000000000E+04  0.10566000000E+00 0.  1.
        994   -1    0    0    0    0 -0.00000000000E+00 -0.00000000000E+00  0.11368683772E-12  0.17120000000E+03  0.17120000000E+03 0.  0.
         13    1    1    2    0    0  0.28219144064E+02 -0.35400009965E+02  0.11272326477E+03  0.12147438570E+03  0.10566000000E+00 0.  1.
        994    1    1    2    0    0 -0.24253132916E+02  0.30656773299E+02  0.13744573845E+02  0.17614313928E+03  0.17120000000E+03 0.  0.
        998    1    1    2    0    0 -0.39660111483E+01  0.47432366660E+01  0.13735321577E+04  0.13735824750E+04  0.10000000000E+02 0.  0.
</event>
<event>
 5    1  0.1360042E-008  0.3800384E+03  0.7957747E-01  0.3450991E+00
         13   -1    0    0    0    0  0.00000000000E+00  0.00000000000E+00  0.14999999963E+04  0.15000000000E+04  0.10566000000E+00 0.  1.
        994   -1    0    0    0    0 -0.00000000000E+00 -0.00000000000E+00  0.11368683772E-12  0.17120000000E+03  0.17120000000E+03 0.  0.
         13    1    1    2    0    0 -0.13541717510E+02 -0.18488846419E+02  0.59667632939E+02  0.63917549543E+02  0.10566000000E+00 0.  1.
        994    1    1    2    0    0  0.19080747589E+02  0.17626795796E+02  0.63724738173E+01  0.17327673612E+03  0.17120000000E+03 0.  0.
        998    1    1    2    0    0 -0.55390300786E+01  0.86205062315E+00  0.14339598895E+04  0.14340057143E+04  0.10000000000E+02 0.  1.
</event>
<event>
 5    1  0.1360042E-008  0.3713562E+03  0.7957747E-01  0.3489681E+00
         13   -1    0    0    0    0  0.00000000000E+00  0.00000000000E+00  0.14999999963E+04  0.15000000000E+04  0.10566000000E+00 0. -1.
        994   -1    0    0    0    0 -0.00000000000E+00 -0.00000000000E+00  0.11368683772E-12  0.17120000000E+03  0.17120000000E+03 0.  0.
         13    1    1    2    0    0 -0.32419759657E+02  0.13125212427E+02  0.46058899926E+02  0.57833774249E+02  0.10566000000E+00 0. -1.
        994    1    1    2    0    0  0.37204949028E+02 -0.12511878779E+02  0.17089418151E+02  0.17647165085E+03  0.17120000000E+03 0.  0.
        998    1    1    2    0    0 -0.47851893711E+01 -0.61333364754E+00  0.14368516782E+04  0.14368945749E+04  0.10000000000E+02 0. -1.
</event>
<event>
 5    1  0.1360042E-008  0.3804436E+03  0.7957747E-01  0.3449229E+00
         13   -1    0    0    0    0  0.00000000000E+00  0.00000000000E+00  0.14999999963E+04  0.15000000000E+04  0.10566000000E+00 0.  1.
        994   -1    0    0    0    0 -0.00000000000E+00 -0.00000000000E+00  0.11368683772E-12  0.17120000000E+03  0.17120000000E+03 0.  0.
         13    1    1    2    0    0 -0.16187433222E+02 -0.15255064820E+02  0.60947900221E+02  0.64879948384E+02  0.10566000000E+00 0.  1.
        994    1    1    2    0    0  0.16959413760E+02  0.80361938465E+01  0.50859250166E+01  0.17230063482E+03  0.17120000000E+03 0.  0.
        998    1    1    2    0    0 -0.77198053801E+00  0.72188709740E+01  0.14339661710E+04  0.14340194168E+04  0.10000000000E+02 0.  1.
</event>
<event>
 5    1  0.1360042E-008  0.3844239E+03  0.7957747E-01  0.3432119E+00
         13   -1    0    0    0    0  0.00000000000E+00  0.00000000000E+00  0.14999999963E+04  0.15000000000E+04  0.10566000000E+00 0.  1.
        994   -1    0    0    0    0 -0.00000000000E+00 -0.00000000000E+00  0.11368683772E-12  0.17120000000E+03  0.17120000000E+03 0.  0.
         13    1    1    2    0    0 -0.12158498727E+02  0.10000684351E+02  0.76942389955E+02  0.78536522172E+02  0.10566000000E+00 0.  1.
        994    1    1    2    0    0 -0.17408601047E+02  0.50303788720E+01  0.29990923975E+01  0.17218245746E+03  0.17120000000E+03 0.  0.
        998    1    1    2    0    0  0.29567099774E+02 -0.15031063223E+02  0.14200585139E+04  0.14204810204E+04  0.10000000000E+02 0.  1.
</event>
<event>
 5    1  0.1360042E-008  0.3821282E+03  0.7957747E-01  0.3441944E+00
         13   -1    0    0    0    0  0.00000000000E+00  0.00000000000E+00  0.14999999963E+04  0.15000000000E+04  0.10566000000E+00 0. -1.
        994   -1    0    0    0    0 -0.00000000000E+00 -0.00000000000E+00  0.11368683772E-12  0.17120000000E+03  0.17120000000E+03 0.  0.
         13    1    1    2    0    0  0.24002749221E+02  0.17077516401E+02  0.13330326323E+03  0.13651939308E+03  0.10566000000E+00 0. -1.
        994    1    1    2    0    0 -0.17731557261E+02 -0.19288870667E+02  0.53448153787E+01  0.17327572163E+03  0.17120000000E+03 0.  0.
        998    1    1    2    0    0 -0.62711919606E+01  0.22113542654E+01  0.13613519177E+04  0.13614048853E+04  0.10000000000E+02 0. -1.
</event>
<event>
 5    1  0.1360042E-008  0.3811379E+03  0.7957747E-01  0.3446219E+00
         13   -1    0    0    0    0  0.00000000000E+00  0.00000000000E+00  0.14999999963E+04  0.15000000000E+04  0.10566000000E+00 0. -1.
        994   -1    0    0    0    0 -0.00000000000E+00 -0.00000000000E+00  0.11368683772E-12  0.17120000000E+03  0.17120000000E+03 0.  0.
         13    1    1    2    0    0 -0.31089183621E+02 -0.32875304247E+02  0.27279561673E+03  0.27652266207E+03  0.10566000000E+00 0. -1.
        994    1    1    2    0    0  0.24658613016E+02  0.19397368719E+02  0.68449023052E+01  0.17418552694E+03  0.17120000000E+03 0.  0.
        998    1    1    2    0    0  0.64305706047E+01  0.13477935528E+02  0.12203594772E+04  0.12204918110E+04  0.10000000000E+02 0. -1.
</event>
<event>
 5    1  0.1360042E-008  0.3825443E+03  0.7957747E-01  0.3440155E+00
         13   -1    0    0    0    0  0.00000000000E+00  0.00000000000E+00  0.14999999963E+04  0.15000000000E+04  0.10566000000E+00 0. -1.
        994   -1    0    0    0    0 -0.00000000000E+00 -0.00000000000E+00  0.11368683772E-12  0.17120000000E+03  0.17120000000E+03 0.  0.
         13    1    1    2    0    0 -0.12777109477E+02 -0.10529499909E+02  0.53970365742E+02  0.56452957737E+02  0.10566000000E+00 0. -1.
        994    1    1    2    0    0 -0.12929128459E+02 -0.13863712558E+02  0.40465162913E+01  0.17229387448E+03  0.17120000000E+03 0.  0.
        998    1    1    2    0    0  0.25706237935E+02  0.24393212468E+02  0.14419831142E+04  0.14424531678E+04  0.10000000000E+02 0. -1.
</event>
<event>
 5    1  0.1360042E-008  0.3684878E+03  0.7957747E-01  0.3502870E+00
         13   -1    0    0    0    0  0.00000000000E+00  0.00000000000E+00  0.14999999963E+04  0.15000000000E+04  0.10566000000E+00 0.  1.
        994   -1    0    0    0    0 -0.00000000000E+00 -0.00000000000E+00  0.11368683772E-12  0.17120000000E+03  0.17120000000E+03 0.  0.
         13    1    1    2    0    0 -0.45510449060E+02 -0.35606526579E+02  0.24317072146E+03  0.24994206658E+03  0.10566000000E+00 0.  1.
        994    1    1    2    0    0 -0.32750926026E+02 -0.12572953421E+02  0.14351405947E+02  0.17534567336E+03  0.17120000000E+03 0.  0.
        998    1    1    2    0    0  0.78261375086E+02  0.48179480000E+02  0.12424778689E+04  0.12459122601E+04  0.10000000000E+02 0.  1.
</event>
<event>
 5    1  0.1360042E-008  0.3814673E+03  0.7957747E-01  0.3444795E+00
         13   -1    0    0    0    0  0.00000000000E+00  0.00000000000E+00  0.14999999963E+04  0.15000000000E+04  0.10566000000E+00 0. -1.
        994   -1    0    0    0    0 -0.00000000000E+00 -0.00000000000E+00  0.11368683772E-12  0.17120000000E+03  0.17120000000E+03 0.  0.
         13    1    1    2    0    0 -0.32373312366E+00 -0.21211550901E+02  0.69170901893E+02  0.72350946970E+02  0.10566000000E+00 0. -1.
        994    1    1    2    0    0 -0.57828960748E+01  0.91996026573E+00  0.35083961274E+01  0.17133603549E+03  0.17120000000E+03 0.  0.
        998    1    1    2    0    0  0.61066291984E+01  0.20291590635E+02  0.14273206983E+04  0.14275130175E+04  0.10000000000E+02 0. -1.
</event>
<event>
 5    1  0.1360042E-008  0.2758322E+03  0.7957747E-01  0.4085248E+00
         13   -1    0    0    0    0  0.00000000000E+00  0.00000000000E+00  0.14999999963E+04  0.15000000000E+04  0.10566000000E+00 0. -1.
        994   -1    0    0    0    0 -0.00000000000E+00 -0.00000000000E+00  0.11368683772E-12  0.17120000000E+03  0.17120000000E+03 0.  0.
         13    1    1    2    0    0  0.15909431669E+03  0.12115103412E+03  0.38563216825E+03  0.43439700163E+03  0.10566000000E+00 0. -1.
        994    1    1    2    0    0 -0.16082805025E+03 -0.13334502552E+03  0.23714088526E+03  0.35943260431E+03  0.17120000000E+03 0.  0.
        998    1    1    2    0    0  0.17337335565E+01  0.12193991408E+02  0.87722694277E+03  0.87737039406E+03  0.10000000000E+02 0. -1.
</event>
<event>
 5    1  0.1360042E-008  0.3853377E+03  0.7957747E-01  0.3428241E+00
         13   -1    0    0    0    0  0.00000000000E+00  0.00000000000E+00  0.14999999963E+04  0.15000000000E+04  0.10566000000E+00 0. -1.
        994   -1    0    0    0    0 -0.00000000000E+00 -0.00000000000E+00  0.11368683772E-12  0.17120000000E+03  0.17120000000E+03 0.  0.
         13    1    1    2    0    0 -0.84849527026E+01 -0.79225226943E+01  0.44477684804E+02  0.45967775645E+02  0.10566000000E+00 0. -1.
        994    1    1    2    0    0  0.11780682028E+02  0.86830120140E+01  0.21664677362E+01  0.17183804221E+03  0.17120000000E+03 0.  0.
        998    1    1    2    0    0 -0.32957293253E+01 -0.76048931969E+00  0.14533558437E+04  0.14533941821E+04  0.10000000000E+02 0. -1.
</event>
<event>
 5    1  0.1360042E-008  0.3849068E+03  0.7957747E-01  0.3430067E+00
         13   -1    0    0    0    0  0.00000000000E+00  0.00000000000E+00  0.14999999963E+04  0.15000000000E+04  0.10566000000E+00 0.  1.
        994   -1    0    0    0    0 -0.00000000000E+00 -0.00000000000E+00  0.11368683772E-12  0.17120000000E+03  0.17120000000E+03 0.  0.
         13    1    1    2    0    0  0.22893063876E+02  0.17409725983E+01  0.10915031424E+03  0.11153889735E+03  0.10566000000E+00 0.  1.
        994    1    1    2    0    0 -0.61792855629E+02 -0.95418570960E+01  0.14644415431E+02  0.18284775893E+03  0.17120000000E+03 0.  0.
        998    1    1    2    0    0  0.38899791753E+02  0.78008844976E+01  0.13762052666E+04  0.13768133437E+04  0.10000000000E+02 0.  1.
</event>
<event>
 5    1  0.1360042E-008  0.3852509E+03  0.7957747E-01  0.3428609E+00
         13   -1    0    0    0    0  0.00000000000E+00  0.00000000000E+00  0.14999999963E+04  0.15000000000E+04  0.10566000000E+00 0.  1.
        994   -1    0    0    0    0 -0.00000000000E+00 -0.00000000000E+00  0.11368683772E-12  0.17120000000E+03  0.17120000000E+03 0.  0.
         13    1    1    2    0    0  0.98268968639E+01 -0.13780927770E+02  0.91176116281E+02  0.92733905430E+02  0.10566000000E+00 0.  1.
        994    1    1    2    0    0 -0.31332152334E+00  0.20605936409E+02  0.29024351857E+01  0.17246033433E+03  0.17120000000E+03 0.  0.
        998    1    1    2    0    0 -0.95135753405E+01 -0.68250086387E+01  0.14059214448E+04  0.14060057602E+04  0.10000000000E+02 0.  1.
</event>
<event>
 5    1  0.1360042E-008  0.3850178E+03  0.7957747E-01  0.3429597E+00
         13   -1    0    0    0    0  0.00000000000E+00  0.00000000000E+00  0.14999999963E+04  0.15000000000E+04  0.10566000000E+00 0.  1.
        994   -1    0    0    0    0 -0.00000000000E+00 -0.00000000000E+00  0.11368683772E-12  0.17120000000E+03  0.17120000000E+03 0.  0.
         13    1    1    2    0    0 -0.36480620881E+01 -0.13742467418E+02  0.60865681092E+02  0.62504448374E+02  0.10566000000E+00 0.  1.
        994    1    1    2    0    0  0.19134855674E+01  0.13322391651E+02  0.22172185434E+01  0.17174255036E+03  0.17120000000E+03 0.  0.
        998    1    1    2    0    0  0.17345765207E+01  0.42007576654E+00  0.14369170966E+04  0.14369530013E+04  0.10000000000E+02 0.  1.
</event>
<event>
 5    1  0.1360042E-008  0.3709533E+03  0.7957747E-01  0.3491521E+00
         13   -1    0    0    0    0  0.00000000000E+00  0.00000000000E+00  0.14999999963E+04  0.15000000000E+04  0.10566000000E+00 0. -1.
        994   -1    0    0    0    0 -0.00000000000E+00 -0.00000000000E+00  0.11368683772E-12  0.17120000000E+03  0.17120000000E+03 0.  0.
         13    1    1    2    0    0  0.13522440098E+02  0.20323282676E+02  0.30356093728E+02  0.38953764842E+02  0.10566000000E+00 0. -1.
        994    1    1    2    0    0 -0.19353187925E+02 -0.75428131250E+01  0.10259905275E+02  0.17276037037E+03  0.17120000000E+03 0.  0.
        998    1    1    2    0    0  0.58307478271E+01 -0.12780469551E+02  0.14593839973E+04  0.14594858648E+04  0.10000000000E+02 0. -1.
</event>
<event>
 5    1  0.1360042E-008  0.3845778E+03  0.7957747E-01  0.3431465E+00
         13   -1    0    0    0    0  0.00000000000E+00  0.00000000000E+00  0.14999999963E+04  0.15000000000E+04  0.10566000000E+00 0. -1.
        994   -1    0    0    0    0 -0.00000000000E+00 -0.00000000000E+00  0.11368683772E-12  0.17120000000E+03  0.17120000000E+03 0.  0.
         13    1    1    2    0    0 -0.27356272879E+01 -0.23081396722E+02  0.10920539446E+03  0.11165152876E+03  0.10566000000E+00 0. -1.
        994    1    1    2    0    0  0.19829801726E+02  0.52679800719E+02  0.12344423574E+02  0.18063833268E+03  0.17120000000E+03 0.  0.
        998    1    1    2    0    0 -0.17094174438E+02 -0.29598403997E+02  0.13784501782E+04  0.13789101386E+04  0.10000000000E+02 0. -1.
</event>
<event>
 5    1  0.1360042E-008  0.3849217E+03  0.7957747E-01  0.3430004E+00
         13   -1    0    0    0    0  0.00000000000E+00  0.00000000000E+00  0.14999999963E+04  0.15000000000E+04  0.10566000000E+00 0.  1.
        994   -1    0    0    0    0 -0.00000000000E+00 -0.00000000000E+00  0.11368683772E-12  0.17120000000E+03  0.17120000000E+03 0.  0.
         13    1    1    2    0    0 -0.38849002718E+02 -0.27453194670E+03  0.10437810067E+04  0.10799795534E+04  0.10566000000E+00 0.  1.
        994    1    1    2    0    0  0.41710713186E+02  0.28285649652E+03  0.34669521337E+03  0.48088937625E+03  0.17120000000E+03 0.  0.
        998    1    1    2    0    0 -0.28617104683E+01 -0.83245498206E+01  0.10952377624E+03  0.11033107032E+03  0.10000000000E+02 0.  1.
</event>
<event>
 5    1  0.1360042E-008  0.3815744E+03  0.7957747E-01  0.3444332E+00
         13   -1    0    0    0    0  0.00000000000E+00  0.00000000000E+00  0.14999999963E+04  0.15000000000E+04  0.10566000000E+00 0. -1.
        994   -1    0    0    0    0 -0.00000000000E+00 -0.00000000000E+00  0.11368683772E-12  0.17120000000E+03  0.17120000000E+03 0.  0.
         13    1    1    2    0    0 -0.10507986945E+02 -0.15035596037E+02  0.49453320865E+02  0.52745891275E+02  0.10566000000E+00 0. -1.
        994    1    1    2    0    0  0.45637460545E+01  0.99026525084E+01  0.37359924493E+01  0.17158755183E+03  0.17120000000E+03 0.  0.
        998    1    1    2    0    0  0.59442408906E+01  0.51329435287E+01  0.14468106830E+04  0.14468665569E+04  0.10000000000E+02 0. -1.
</event>
<event>
 5    1  0.1360042E-008  0.3725057E+03  0.7957747E-01  0.3484454E+00
         13   -1    0    0    0    0  0.00000000000E+00  0.00000000000E+00  0.14999999963E+04  0.15000000000E+04  0.10566000000E+00 0.  1.
        994   -1    0    0    0    0 -0.00000000000E+00 -0.00000000000E+00  0.11368683772E-12  0.17120000000E+03  0.17120000000E+03 0.  0.
         13    1    1    2    0    0 -0.25903660755E+02 -0.23366226501E+02  0.71848034435E+02  0.79869464738E+02  0.10566000000E+00 0.  1.
        994    1    1    2    0    0  0.80077810616E+01  0.34004921763E+02  0.12160505255E+02  0.17515072695E+03  0.17120000000E+03 0.  0.
        998    1    1    2    0    0  0.17895879693E+02 -0.10638695262E+02  0.14159914566E+04  0.14161798083E+04  0.10000000000E+02 0.  1.
</event>
<event>
 5    1  0.1360042E-008  0.3758692E+03  0.7957747E-01  0.3469345E+00
         13   -1    0    0    0    0  0.00000000000E+00  0.00000000000E+00  0.14999999963E+04  0.15000000000E+04  0.10566000000E+00 0.  1.
        994   -1    0    0    0    0 -0.00000000000E+00 -0.00000000000E+00  0.11368683772E-12  0.17120000000E+03  0.17120000000E+03 0.  0.
         13    1    1    2    0    0  0.10206428271E+03  0.48488311115E+02  0.67077704481E+03  0.68022796850E+03  0.10566000000E+00 0.  1.
        994    1    1    2    0    0 -0.86354737389E+02 -0.50442390348E+02  0.40922425951E+02  0.20244915500E+03  0.17120000000E+03 0.  0.
        998    1    1    2    0    0 -0.15709545316E+02  0.19540792324E+01  0.78830052552E+03  0.78852287651E+03  0.10000000000E+02 0.  1.
</event>
<event>
 5    1  0.1360042E-008  0.3829057E+03  0.7957747E-01  0.3438603E+00
         13   -1    0    0    0    0  0.00000000000E+00  0.00000000000E+00  0.14999999963E+04  0.15000000000E+04  0.10566000000E+00 0.  1.
        994   -1    0    0    0    0 -0.00000000000E+00 -0.00000000000E+00  0.11368683772E-12  0.17120000000E+03  0.17120000000E+03 0.  0.
         13    1    1    2    0    0  0.29282482277E+01 -0.18048622217E+02  0.56908506545E+02  0.59773879603E+02  0.10566000000E+00 0.  1.
        994    1    1    2    0    0 -0.27758040770E+02  0.25354244005E+02  0.73673972163E+01  0.17543393360E+03  0.17120000000E+03 0.  0.
        998    1    1    2    0    0  0.24829792543E+02 -0.73056217873E+01  0.14357240925E+04  0.14359921868E+04  0.10000000000E+02 0.  1.
</event>
<event>
 5    1  0.1360042E-008  0.3850791E+03  0.7957747E-01  0.3429337E+00
         13   -1    0    0    0    0  0.00000000000E+00  0.00000000000E+00  0.14999999963E+04  0.15000000000E+04  0.10566000000E+00 0. -1.
        994   -1    0    0    0    0 -0.00000000000E+00 -0.00000000000E+00  0.11368683772E-12  0.17120000000E+03  0.17120000000E+03 0.  0.
         13    1    1    2    0    0  0.57307226305E+01 -0.84669739579E+01  0.32021033235E+02  0.33613815067E+02  0.10566000000E+00 0. -1.
        994    1    1    2    0    0 -0.21387653293E+01  0.12357259251E+02  0.21081142424E+01  0.17167166429E+03  0.17120000000E+03 0.  0.
        998    1    1    2    0    0 -0.35919573012E+01 -0.38902852926E+01  0.14658708488E+04  0.14659145206E+04  0.10000000000E+02 0. -1.
</event>
<event>
 5    1  0.1360042E-008  0.3706405E+03  0.7957747E-01  0.3492952E+00
         13   -1    0    0    0    0  0.00000000000E+00  0.00000000000E+00  0.14999999963E+04  0.15000000000E+04  0.10566000000E+00 0.  1.
        994   -1    0    0    0    0 -0.00000000000E+00 -0.00000000000E+00  0.11368683772E-12  0.17120000000E+03  0.17120000000E+03 0.  0.
         13    1    1    2    0    0  0.74679087097E+02  0.51974480807E+02  0.44046284583E+03  0.44976198419E+03  0.10566000000E+00 0.  1.
        994    1    1    2    0    0 -0.38038590640E+02 -0.47024448351E+02  0.21663450109E+02  0.18285780867E+03  0.17120000000E+03 0.  0.
        998    1    1    2    0    0 -0.36640496457E+02 -0.49500324561E+01  0.10378737003E+04  0.10385802071E+04  0.10000000000E+02 0.  1.
</event>
<event>
 5    1  0.1360042E-008  0.3763167E+03  0.7957747E-01  0.3467355E+00
         13   -1    0    0    0    0  0.00000000000E+00  0.00000000000E+00  0.14999999963E+04  0.15000000000E+04  0.10566000000E+00 0. -1.
        994   -1    0    0    0    0 -0.00000000000E+00 -0.00000000000E+00  0.11368683772E-12  0.17120000000E+03  0.17120000000E+03 0.  0.
         13    1    1    2    0    0 -0.21567306515E+02 -0.54442696201E+01  0.38404731879E+02  0.44381565731E+02  0.10566000000E+00 0. -1.
        994    1    1    2    0    0  0.18838875874E+02  0.52049646191E+00  0.72070059340E+01  0.17238490391E+03  0.17120000000E+03 0.  0.
        998    1    1    2    0    0  0.27284306406E+01  0.49237731582E+01  0.14543882585E+04  0.14544335304E+04  0.10000000000E+02 0. -1.
</event>
<event>
 5    1  0.1360042E-008  0.3838323E+03  0.7957747E-01  0.3434640E+00
         13   -1    0    0    0    0  0.00000000000E+00  0.00000000000E+00  0.14999999963E+04  0.15000000000E+04  0.10566000000E+00 0.  1.
        994   -1    0    0    0    0 -0.00000000000E+00 -0.00000000000E+00  0.11368683772E-12  0.17120000000E+03  0.17120000000E+03 0.  0.
         13    1    1    2    0    0 -0.11095424645E+02  0.11567369922E+02  0.56805958100E+02  0.59024067419E+02  0.10566000000E+00 0.  1.
        994    1    1    2    0    0  0.81505479914E+01 -0.10467760642E+02  0.27922133859E+01  0.17173596566E+03  0.17120000000E+03 0.  0.
        998    1    1    2    0    0  0.29448766534E+01 -0.10996092797E+01  0.14404018248E+04  0.14404399669E+04  0.10000000000E+02 0.  1.
</event>
<event>
 5    1  0.1360042E-008  0.3852826E+03  0.7957747E-01  0.3428475E+00
         13   -1    0    0    0    0  0.00000000000E+00  0.00000000000E+00  0.14999999963E+04  0.15000000000E+04  0.10566000000E+00 0.  1.
        994   -1    0    0    0    0 -0.00000000000E+00 -0.00000000000E+00  0.11368683772E-12  0.17120000000E+03  0.17120000000E+03 0.  0.
         13    1    1    2    0    0  0.11282354316E+01  0.11566304335E+02  0.45205290187E+02  0.46675279711E+02  0.10566000000E+00 0.  1.
        994    1    1    2    0    0  0.63953744741E+01 -0.92132540416E+01  0.19033104214E+01  0.17157752608E+03  0.17120000000E+03 0.  0.
        998    1    1    2    0    0 -0.75236099057E+01 -0.23530502933E+01  0.14528913957E+04  0.14529471942E+04  0.10000000000E+02 0.  1.
</event>
<event>
 5    1  0.1360042E-008  0.3834539E+03  0.7957747E-01  0.3436256E+00
         13   -1    0    0    0    0  0.00000000000E+00  0.00000000000E+00  0.14999999963E+04  0.15000000000E+04  0.10566000000E+00 0. -1.
        994   -1    0    0    0    0 -0.00000000000E+00 -0.00000000000E+00  0.11368683772E-12  0.17120000000E+03  0.17120000000E+03 0.  0.
         13    1    1    2    0    0  0.15731399169E+02  0.69258029330E+01  0.62294216257E+02  0.64622164999E+02  0.10566000000E+00 0. -1.
        994    1    1    2    0    0 -0.47862231268E+01 -0.64198782817E+01  0.26116814165E+01  0.17140707001E+03  0.17120000000E+03 0.  0.
        998    1    1    2    0    0 -0.10945176042E+02 -0.50592465134E+00  0.14350940986E+04  0.14351707650E+04  0.10000000000E+02 0. -1.
</event>
<event>
 5    1  0.1360042E-008  0.3812077E+03  0.7957747E-01  0.3445917E+00
         13   -1    0    0    0    0  0.00000000000E+00  0.00000000000E+00  0.14999999963E+04  0.15000000000E+04  0.10566000000E+00 0.  1.
        994   -1    0    0    0    0 -0.00000000000E+00 -0.00000000000E+00  0.11368683772E-12  0.17120000000E+03  0.17120000000E+03 0.  0.
         13    1    1    2    0    0 -0.27092432305E+02 -0.46331820926E+01  0.10693726123E+03  0.11041311185E+03  0.10566000000E+00 0.  1.
        994    1    1    2    0    0  0.13881936596E+02  0.88816522657E+01  0.44295898971E+01  0.17204840359E+03  0.17120000000E+03 0.  0.
        998    1    1    2    0    0  0.13210495709E+02 -0.42484701731E+01  0.13886331451E+04  0.13887384846E+04  0.10000000000E+02 0.  1.
</event>
<event>
 5    1  0.1360042E-008  0.3760683E+03  0.7957747E-01  0.3468459E+00
         13   -1    0    0    0    0  0.00000000000E+00  0.00000000000E+00  0.14999999963E+04  0.15000000000E+04  0.10566000000E+00 0. -1.
        994   -1    0    0    0    0 -0.00000000000E+00 -0.00000000000E+00  0.11368683772E-12  0.17120000000E+03  0.17120000000E+03 0.  0.
         13    1    1    2    0    0 -0.21005643475E+02  0.15000553087E+02  0.50949169406E+02  0.57114645039E+02  0.10566000000E+00 0. -1.
        994    1    1    2    0    0  0.19701290115E+02 -0.11772583591E+02  0.79172315917E+01  0.17291285988E+03  0.17120000000E+03 0.  0.
        998    1    1    2    0    0  0.13043533596E+01 -0.32279694961E+01  0.14411335953E+04  0.14411724951E+04  0.10000000000E+02 0. -1.
</event>
<event>
 5    1  0.1360042E-008  0.3837883E+03  0.7957747E-01  0.3434827E+00
         13   -1    0    0    0    0  0.00000000000E+00  0.00000000000E+00  0.14999999963E+04  0.15000000000E+04  0.10566000000E+00 0.  1.
        994   -1    0    0    0    0 -0.00000000000E+00 -0.00000000000E+00  0.11368683772E-12  0.17120000000E+03  0.17120000000E+03 0.  0.
         13    1    1    2    0    0  0.16724969441E+02  0.10943850131E+02  0.10317976887E+03  0.10509789877E+03  0.10566000000E+00 0.  1.
        994    1    1    2    0    0  0.46331007041E+01  0.81257804576E+01  0.25218227547E+01  0.17147388583E+03  0.17120000000E+03 0.  0.
        998    1    1    2    0    0 -0.21358070145E+02 -0.19069630588E+02  0.13942984047E+04  0.13946282154E+04  0.10000000000E+02 0.  1.
</event>
<event>
 5    1  0.1360042E-008  0.3721325E+03  0.7957747E-01  0.3486147E+00
         13   -1    0    0    0    0  0.00000000000E+00  0.00000000000E+00  0.14999999963E+04  0.15000000000E+04  0.10566000000E+00 0.  1.
        994   -1    0    0    0    0 -0.00000000000E+00 -0.00000000000E+00  0.11368683772E-12  0.17120000000E+03  0.17120000000E+03 0.  0.
         13    1    1    2    0    0  0.17165162737E+02  0.43183623572E+02  0.12116263620E+03  0.12976850054E+03  0.10566000000E+00 0.  1.
        994    1    1    2    0    0 -0.30234021668E+02 -0.35308075497E+02  0.15611979334E+02  0.17808405364E+03  0.17120000000E+03 0.  0.
        998    1    1    2    0    0  0.13068858932E+02 -0.78755480750E+01  0.13632253807E+04  0.13633474458E+04  0.10000000000E+02 0.  1.
</event>
<event>
 5    1  0.1360042E-008  0.3743111E+03  0.7957747E-01  0.3476310E+00
         13   -1    0    0    0    0  0.00000000000E+00  0.00000000000E+00  0.14999999963E+04  0.15000000000E+04  0.10566000000E+00 0. -1.
        994   -1    0    0    0    0 -0.00000000000E+00 -0.00000000000E+00  0.11368683772E-12  0.17120000000E+03  0.17120000000E+03 0.  0.
         13    1    1    2    0    0 -0.47859777049E+02 -0.36931143099E+01  0.15277950555E+03  0.16014301681E+03  0.10566000000E+00 0. -1.
        994    1    1    2    0    0  0.40296837275E+02 -0.99610985800E+01  0.12926324187E+02  0.17663405231E+03  0.17120000000E+03 0.  0.
        998    1    1    2    0    0  0.75629397742E+01  0.13654212890E+02  0.13342941665E+04  0.13344229309E+04  0.10000000000E+02 0. -1.
</event>
<event>
 5    1  0.1360042E-008  0.3805535E+03  0.7957747E-01  0.3448752E+00
         13   -1    0    0    0    0  0.00000000000E+00  0.00000000000E+00  0.14999999963E+04  0.15000000000E+04  0.10566000000E+00 0. -1.
        994   -1    0    0    0    0 -0.00000000000E+00 -0.00000000000E+00  0.11368683772E-12  0.17120000000E+03  0.17120000000E+03 0.  0.
         13    1    1    2    0    0 -0.50045291446E+01 -0.18197112682E+02  0.48892522816E+02  0.52408684139E+02  0.10566000000E+00 0. -1.
        994    1    1    2    0    0 -0.37254612237E+01 -0.98258615231E+01  0.42225572531E+01  0.17157417232E+03  0.17120000000E+03 0.  0.
        998    1    1    2    0    0  0.87299903683E+01  0.28022974205E+02  0.14468849162E+04  0.14472171435E+04  0.10000000000E+02 0. -1.
</event>
<event>
 5    1  0.1360042E-008  0.3792939E+03  0.7957747E-01  0.3454239E+00
         13   -1    0    0    0    0  0.00000000000E+00  0.00000000000E+00  0.14999999963E+04  0.15000000000E+04  0.10566000000E+00 0.  1.
        994   -1    0    0    0    0 -0.00000000000E+00 -0.00000000000E+00  0.11368683772E-12  0.17120000000E+03  0.17120000000E+03 0.  0.
         13    1    1    2    0    0  0.11387848801E+02  0.21095996133E+01  0.12791635438E+02  0.17256031179E+02  0.10566000000E+00 0.  1.
        994    1    1    2    0    0 -0.11715544628E+02 -0.14168631525E+02  0.56233840950E+01  0.17227613460E+03  0.17120000000E+03 0.  0.
        998    1    1    2    0    0  0.32769582613E+00  0.12059031912E+02  0.14815849767E+04  0.14816678342E+04  0.10000000000E+02 0.  1.
</event>
<event>
 5    1  0.1360042E-008  0.3834801E+03  0.7957747E-01  0.3436144E+00
         13   -1    0    0    0    0  0.00000000000E+00  0.00000000000E+00  0.14999999963E+04  0.15000000000E+04  0.10566000000E+00 0. -1.
        994   -1    0    0    0    0 -0.00000000000E+00 -0.00000000000E+00  0.11368683772E-12  0.17120000000E+03  0.17120000000E+03 0.  0.
         13    1    1    2    0    0 -0.12258108686E+02 -0.25448579949E+02  0.15266841523E+03  0.15525961363E+03  0.10566000000E+00 0. -1.
        994    1    1    2    0    0  0.15029887211E+02  0.23432068461E+02  0.49520443763E+01  0.17351922685E+03  0.17120000000E+03 0.  0.
        998    1    1    2    0    0 -0.27717785250E+01  0.20165114878E+01  0.13423795367E+04  0.13424211595E+04  0.10000000000E+02 0. -1.
</event>
<event>
 5    1  0.1360042E-008  0.3819925E+03  0.7957747E-01  0.3442528E+00
         13   -1    0    0    0    0  0.00000000000E+00  0.00000000000E+00  0.14999999963E+04  0.15000000000E+04  0.10566000000E+00 0.  1.
        994   -1    0    0    0    0 -0.00000000000E+00 -0.00000000000E+00  0.11368683772E-12  0.17120000000E+03  0.17120000000E+03 0.  0.
         13    1    1    2    0    0 -0.15727581428E+01  0.10731285898E+02  0.17769925411E+02  0.20818632960E+02  0.10566000000E+00 0.  1.
        994    1    1    2    0    0 -0.68929539390E+01 -0.37739334925E+01  0.33358341276E+01  0.17141272758E+03  0.17120000000E+03 0.  0.
        998    1    1    2    0    0  0.84657120818E+01 -0.69573524054E+01  0.14788942367E+04  0.14789686395E+04  0.10000000000E+02 0.  1.
</event>
<event>
 5    1  0.1360042E-008  0.2677386E+03  0.7957747E-01  0.4157170E+00
         13   -1    0    0    0    0  0.00000000000E+00  0.00000000000E+00  0.14999999963E+04  0.15000000000E+04  0.10566000000E+00 0. -1.
        994   -1    0    0    0    0 -0.00000000000E+00 -0.00000000000E+00  0.11368683772E-12  0.17120000000E+03  0.17120000000E+03 0.  0.
         13    1    1    2    0    0  0.18358172938E+03  0.10773534663E+03  0.61276063264E+03  0.64867924304E+03  0.10566000000E+00 0. -1.
        994    1    1    2    0    0 -0.41531230475E+02 -0.71184192415E+02  0.87152163216E+02  0.20903820681E+03  0.17120000000E+03 0.  0.
        998    1    1    2    0    0 -0.14205049890E+03 -0.36551154215E+02  0.80008720042E+03  0.81348255015E+03  0.10000000000E+02 0.  1.
</event>
<event>
 5    1  0.1360042E-008  0.3778715E+03  0.7957747E-01  0.3460479E+00
         13   -1    0    0    0    0  0.00000000000E+00  0.00000000000E+00  0.14999999963E+04  0.15000000000E+04  0.10566000000E+00 0. -1.
        994   -1    0    0    0    0 -0.00000000000E+00 -0.00000000000E+00  0.11368683772E-12  0.17120000000E+03  0.17120000000E+03 0.  0.
         13    1    1    2    0    0  0.21058139006E+02 -0.16862400119E+02  0.16568649947E+02  0.31659391675E+02  0.10566000000E+00 0. -1.
        994    1    1    2    0    0 -0.33318033782E+02  0.29887626772E+02  0.22400938924E+02  0.17836648697E+03  0.17120000000E+03 0.  0.
        998    1    1    2    0    0  0.12259894776E+02 -0.13025226654E+02  0.14610304074E+04  0.14611741214E+04  0.10000000000E+02 0. -1.
</event>
<event>
 5    1  0.1360042E-008  0.2563998E+03  0.7957747E-01  0.4266655E+00
         13   -1    0    0    0    0  0.00000000000E+00  0.00000000000E+00  0.14999999963E+04  0.15000000000E+04  0.10566000000E+00 0. -1.
        994   -1    0    0    0    0 -0.00000000000E+00 -0.00000000000E+00  0.11368683772E-12  0.17120000000E+03  0.17120000000E+03 0.  0.
         13    1    1    2    0    0 -0.47170323369E+02 -0.12880096368E+02 -0.35958102115E+02  0.60695408071E+02  0.10566000000E+00 0. -1.
        994    1    1    2    0    0  0.46243610487E+02  0.20433355585E+02  0.17665104132E+03  0.25113945117E+03  0.17120000000E+03 0.  0.
        998    1    1    2    0    0  0.92671288213E+00 -0.75532592173E+01  0.13593070571E+04  0.13593651408E+04  0.10000000000E+02 0. -1.
</event>
<event>
 5    1  0.1360042E-008  0.3692101E+03  0.7957747E-01  0.3499529E+00
         13   -1    0    0    0    0  0.00000000000E+00  0.00000000000E+00  0.14999999963E+04  0.15000000000E+04  0.10566000000E+00 0. -1.
        994   -1    0    0    0    0 -0.00000000000E+00 -0.00000000000E+00  0.11368683772E-12  0.17120000000E+03  0.17120000000E+03 0.  0.
         13    1    1    2    0    0 -0.42196936279E+02 -0.16238366119E+01  0.76394398839E+02  0.87288794325E+02  0.10566000000E+00 0. -1.
        994    1    1    2    0    0  0.45044012687E+02  0.58781179254E+01  0.17750624462E+02  0.17801134800E+03  0.17120000000E+03 0.  0.
        998    1    1    2    0    0 -0.28470764079E+01 -0.42542813135E+01  0.14058549730E+04  0.14058998577E+04  0.10000000000E+02 0. -1.
</event>
<event>
 5    1  0.1360042E-008  0.4109814E+03  0.7957747E-01  0.3326441E+00
         13   -1    0    0    0    0  0.00000000000E+00  0.00000000000E+00  0.14999999963E+04  0.15000000000E+04  0.10566000000E+00 0.  1.
        994   -1    0    0    0    0 -0.00000000000E+00 -0.00000000000E+00  0.11368683772E-12  0.17120000000E+03  0.17120000000E+03 0.  0.
         13    1    1    2    0    0 -0.36204352956E+01 -0.59404254433E+02  0.36195435829E+02  0.69656971908E+02  0.10566000000E+00 0.  1.
        994    1    1    2    0    0  0.81807121035E+01  0.76586355606E+02  0.59272758804E+02  0.19686313482E+03  0.17120000000E+03 0.  0.
        998    1    1    2    0    0 -0.45602768079E+01 -0.17182101173E+02  0.14045318016E+04  0.14046798933E+04  0.10000000000E+02 0.  1.
</event>
<event>
 5    1  0.1360042E-008  0.3797038E+03  0.7957747E-01  0.3452449E+00
         13   -1    0    0    0    0  0.00000000000E+00  0.00000000000E+00  0.14999999963E+04  0.15000000000E+04  0.10566000000E+00 0. -1.
        994   -1    0    0    0    0 -0.00000000000E+00 -0.00000000000E+00  0.11368683772E-12  0.17120000000E+03  0.17120000000E+03 0.  0.
         13    1    1    2    0    0  0.25471085270E+02  0.12534659774E+02  0.91895914813E+02  0.96180893133E+02  0.10566000000E+00 0. -1.
        994    1    1    2    0    0 -0.13337280607E+02 -0.15925357351E+02  0.57279322218E+01  0.17255071506E+03  0.17120000000E+03 0.  0.
        998    1    1    2    0    0 -0.12133804663E+02  0.33906975766E+01  0.14023761492E+04  0.14024683918E+04  0.10000000000E+02 0. -1.
</event>
<event>
 5    1  0.1360042E-008  0.3844337E+03  0.7957747E-01  0.3432077E+00
         13   -1    0    0    0    0  0.00000000000E+00  0.00000000000E+00  0.14999999963E+04  0.15000000000E+04  0.10566000000E+00 0. -1.
        994   -1    0    0    0    0 -0.00000000000E+00 -0.00000000000E+00  0.11368683772E-12  0.17120000000E+03  0.17120000000E+03 0.  0.
         13    1    1    2    0    0 -0.10347807560E+02  0.57159590027E+01  0.36550092684E+02  0.38414447125E+02  0.10566000000E+00 0. -1.
        994    1    1    2    0    0  0.85984015698E+01  0.38299523723E+01  0.22035224600E+01  0.17147272832E+03  0.17120000000E+03 0.  0.
        998    1    1    2    0    0  0.17494059901E+01 -0.95459113750E+01  0.14612463811E+04  0.14613128246E+04  0.10000000000E+02 0. -1.
</event>
<event>
 5    1  0.1360042E-008  0.3748925E+03  0.7957747E-01  0.3473704E+00
         13   -1    0    0    0    0  0.00000000000E+00  0.00000000000E+00  0.14999999963E+04  0.15000000000E+04  0.10566000000E+00 0. -1.
        994   -1    0    0    0    0 -0.00000000000E+00 -0.00000000000E+00  0.11368683772E-12  0.17120000000E+03  0.17120000000E+03 0.  0.
         13    1    1    2    0    0  0.10656161944E+02  0.30849898207E+02  0.79619051172E+02  0.86049256129E+02  0.10566000000E+00 0. -1.
        994    1    1    2    0    0 -0.27158431335E+02 -0.18472899865E+01  0.92577381035E+01  0.17359763416E+03  0.17120000000E+03 0.  0.
        998    1    1    2    0    0  0.16502269392E+02 -0.29002608220E+02  0.14111232070E+04  0.14115531097E+04  0.10000000000E+02 0. -1.
</event>
<event>
 5    1  0.1360042E-008  0.3812976E+03  0.7957747E-01  0.3445528E+00
         13   -1    0    0    0    0  0.00000000000E+00  0.00000000000E+00  0.14999999963E+04  0.15000000000E+04  0.10566000000E+00 0.  1.
        994   -1    0    0    0    0 -0.00000000000E+00 -0.00000000000E+00  0.11368683772E-12  0.17120000000E+03  0.17120000000E+03 0.  0.
         13    1    1    2    0    0  0.25808099447E+02 -0.85437714578E+01  0.92282451885E+02  0.96203514061E+02  0.10566000000E+00 0.  1.
        994    1    1    2    0    0 -0.42756207760E+02  0.25673088826E+01  0.96107947877E+01  0.17673848408E+03  0.17120000000E+03 0.  0.
        998    1    1    2    0    0  0.16948108313E+02  0.59764625752E+01  0.13981067496E+04  0.13982580019E+04  0.10000000000E+02 0.  1.
</event>
<event>
 5    1  0.1360042E-008  0.3776387E+03  0.7957747E-01  0.3461505E+00
         13   -1    0    0    0    0  0.00000000000E+00  0.00000000000E+00  0.14999999963E+04  0.15000000000E+04  0.10566000000E+00 0. -1.
        994   -1    0    0    0    0 -0.00000000000E+00 -0.00000000000E+00  0.11368683772E-12  0.17120000000E+03  0.17120000000E+03 0.  0.
         13    1    1    2    0    0  0.20448035914E+02 -0.17597851084E+02  0.69574157521E+02  0.74621585981E+02  0.10566000000E+00 0. -1.
        994    1    1    2    0    0  0.71109010882E+01  0.15773057679E+02  0.63391202356E+01  0.17218878799E+03  0.17120000000E+03 0.  0.
        998    1    1    2    0    0 -0.27558937002E+02  0.18247934045E+01  0.14240867185E+04  0.14243896260E+04  0.10000000000E+02 0. -1.
</event>
<event>
 5    1  0.1360042E-008  0.3827744E+03  0.7957747E-01  0.3439167E+00
         13   -1    0    0    0    0  0.00000000000E+00  0.00000000000E+00  0.14999999963E+04  0.15000000000E+04  0.10566000000E+00 0. -1.
        994   -1    0    0    0    0 -0.00000000000E+00 -0.00000000000E+00  0.11368683772E-12  0.17120000000E+03  0.17120000000E+03 0.  0.
         13    1    1    2    0    0 -0.27846608062E+02 -0.28059736331E+00  0.13051459502E+03  0.13345254959E+03  0.10566000000E+00 0. -1.
        994    1    1    2    0    0  0.27520364789E+02  0.79179631458E+01  0.54604174037E+01  0.17366439122E+03  0.17120000000E+03 0.  0.
        998    1    1    2    0    0  0.32624327219E+00 -0.76373657825E+01  0.13640249839E+04  0.13640830592E+04  0.10000000000E+02 0. -1.
</event>
<event>
 5    1  0.1360042E-008  0.3853764E+03  0.7957747E-01  0.3428077E+00
         13   -1    0    0    0    0  0.00000000000E+00  0.00000000000E+00  0.14999999963E+04  0.15000000000E+04  0.10566000000E+00 0. -1.
        994   -1    0    0    0    0 -0.00000000000E+00 -0.00000000000E+00  0.11368683772E-12  0.17120000000E+03  0.17120000000E+03 0.  0.
         13    1    1    2    0    0  0.10649650931E+02  0.38339650194E+01  0.46375186865E+02  0.47736605174E+02  0.10566000000E+00 0. -1.
        994    1    1    2    0    0  0.18536801983E+01 -0.62957119197E+01  0.15848438503E+01  0.17133307868E+03  0.17120000000E+03 0.  0.
        998    1    1    2    0    0 -0.12503331129E+02  0.24617469002E+01  0.14520399656E+04  0.14521303161E+04  0.10000000000E+02 0. -1.
</event>
<event>
 5    1  0.1360042E-008  0.3827307E+03  0.7957747E-01  0.3439354E+00
         13   -1    0    0    0    0  0.00000000000E+00  0.00000000000E+00  0.14999999963E+04  0.15000000000E+04  0.10566000000E+00 0. -1.
        994   -1    0    0    0    0 -0.00000000000E+00 -0.00000000000E+00  0.11368683772E-12  0.17120000000E+03  0.17120000000E+03 0.  0.
         13    1    1    2    0    0 -0.29628957590E+02  0.26549736678E+02  0.22733723036E+03  0.23079209501E+03  0.10566000000E+00 0. -1.
        994    1    1    2    0    0  0.36004181361E+02 -0.31556646278E+02  0.10392290794E+02  0.17807179088E+03  0.17120000000E+03 0.  0.
        998    1    1    2    0    0 -0.63752237713E+01  0.50069096003E+01  0.12622704751E+04  0.12623361141E+04  0.10000000000E+02 0. -1.
</event>
<event>
 5    1  0.1360042E-008  0.3698608E+03  0.7957747E-01  0.3496531E+00
         13   -1    0    0    0    0  0.00000000000E+00  0.00000000000E+00  0.14999999963E+04  0.15000000000E+04  0.10566000000E+00 0.  1.
        994   -1    0    0    0    0 -0.00000000000E+00 -0.00000000000E+00  0.11368683772E-12  0.17120000000E+03  0.17120000000E+03 0.  0.
         13    1    1    2    0    0  0.39519270815E+02  0.35817381384E+02  0.19079464995E+03  0.19810923045E+03  0.10566000000E+00 0.  1.
        994    1    1    2    0    0  0.15688786143E+02  0.56097957392E+01  0.10302767565E+02  0.17231713449E+03  0.17120000000E+03 0.  0.
        998    1    1    2    0    0 -0.55208056958E+02 -0.41427177123E+02  0.12989025788E+04  0.13007736351E+04  0.10000000000E+02 0.  1.
</event>
<event>
 5    1  0.1360042E-008  0.3803638E+03  0.7957747E-01  0.3449576E+00
         13   -1    0    0    0    0  0.00000000000E+00  0.00000000000E+00  0.14999999963E+04  0.15000000000E+04  0.10566000000E+00 0. -1.
        994   -1    0    0    0    0 -0.00000000000E+00 -0.00000000000E+00  0.11368683772E-12  0.17120000000E+03  0.17120000000E+03 0.  0.
         13    1    1    2    0    0  0.12342580128E+02 -0.93337017549E+01  0.28180139189E+02  0.32149474046E+02  0.10566000000E+00 0. -1.
        994    1    1    2    0    0 -0.14503966297E+02  0.91934078525E+01  0.49348399475E+01  0.17212982435E+03  0.17120000000E+03 0.  0.
        998    1    1    2    0    0  0.21613861692E+01  0.14029390236E+00  0.14668850171E+04  0.14669207016E+04  0.10000000000E+02 0. -1.
</event>
<event>
 5    1  0.1360042E-008  0.3993028E+03  0.7957747E-01  0.3371188E+00
         13   -1    0    0    0    0  0.00000000000E+00  0.00000000000E+00  0.14999999963E+04  0.15000000000E+04  0.10566000000E+00 0. -1.
        994   -1    0    0    0    0 -0.00000000000E+00 -0.00000000000E+00  0.11368683772E-12  0.17120000000E+03  0.17120000000E+03 0.  0.
         13    1    1    2    0    0  0.63861632757E+02 -0.44798028340E+02  0.96803776753E+02  0.12432278085E+03  0.10566000000E+00 0. -1.
        994    1    1    2    0    0 -0.64605241586E+02  0.40708004021E+02  0.50504323286E+02  0.19414197254E+03  0.17120000000E+03 0.  0.
        998    1    1    2    0    0  0.74360882867E+00  0.40900243186E+01  0.13526918962E+04  0.13527352466E+04  0.10000000000E+02 0. -1.
</event>
<event>
 5    1  0.1360042E-008  0.3840680E+03  0.7957747E-01  0.3433635E+00
         13   -1    0    0    0    0  0.00000000000E+00  0.00000000000E+00  0.14999999963E+04  0.15000000000E+04  0.10566000000E+00 0. -1.
        994   -1    0    0    0    0 -0.00000000000E+00 -0.00000000000E+00  0.11368683772E-12  0.17120000000E+03  0.17120000000E+03 0.  0.
         13    1    1    2    0    0  0.15583989913E+02  0.14379133261E+02  0.11650259983E+03  0.11841658307E+03  0.10566000000E+00 0. -1.
        994    1    1    2    0    0  0.10547356286E+01 -0.42754594805E+01  0.21575425588E+01  0.17127021636E+03  0.17120000000E+03 0.  0.
        998    1    1    2    0    0 -0.16638725542E+02 -0.10103673780E+02  0.13813398539E+04  0.13815132006E+04  0.10000000000E+02 0. -1.
</event>
<event>
 5    1  0.1360042E-008  0.3848548E+03  0.7957747E-01  0.3430288E+00
         13   -1    0    0    0    0  0.00000000000E+00  0.00000000000E+00  0.14999999963E+04  0.15000000000E+04  0.10566000000E+00 0.  1.
        994   -1    0    0    0    0 -0.00000000000E+00 -0.00000000000E+00  0.11368683772E-12  0.17120000000E+03  0.17120000000E+03 0.  0.
         13    1    1    2    0    0  0.13293417722E+02 -0.24933593488E+01  0.53841480203E+02  0.55514394080E+02  0.10566000000E+00 0.  1.
        994    1    1    2    0    0 -0.92266435676E+01 -0.40111412987E+01  0.20353494638E+01  0.17150744256E+03  0.17120000000E+03 0.  0.
        998    1    1    2    0    0 -0.40667741547E+01  0.65045006475E+01  0.14441231666E+04  0.14441781634E+04  0.10000000000E+02 0.  1.
</event>
<event>
 5    1  0.1360042E-008  0.3735077E+03  0.7957747E-01  0.3479924E+00
         13   -1    0    0    0    0  0.00000000000E+00  0.00000000000E+00  0.14999999963E+04  0.15000000000E+04  0.10566000000E+00 0.  1.
        994   -1    0    0    0    0 -0.00000000000E+00 -0.00000000000E+00  0.11368683772E-12  0.17120000000E+03  0.17120000000E+03 0.  0.
         13    1    1    2    0    0 -0.21130742637E+02 -0.72544660237E+02  0.24431764946E+03  0.25573494289E+03  0.10566000000E+00 0.  1.
        994    1    1    2    0    0  0.41058109373E+02  0.13839261851E+02  0.19480046255E+02  0.17766880907E+03  0.17120000000E+03 0.  0.
        998    1    1    2    0    0 -0.19927366736E+02  0.58705398386E+02  0.12362023006E+04  0.12377962480E+04  0.10000000000E+02 0.  1.
</event>
<event>
 5    1  0.1360042E-008  0.3804544E+03  0.7957747E-01  0.3449182E+00
         13   -1    0    0    0    0  0.00000000000E+00  0.00000000000E+00  0.14999999963E+04  0.15000000000E+04  0.10566000000E+00 0. -1.
        994   -1    0    0    0    0 -0.00000000000E+00 -0.00000000000E+00  0.11368683772E-12  0.17120000000E+03  0.17120000000E+03 0.  0.
         13    1    1    2    0    0  0.22295456249E+02  0.73842182695E+01  0.71729127373E+02  0.75476439546E+02  0.10566000000E+00 0. -1.
        994    1    1    2    0    0 -0.59686260036E+01 -0.45718862331E+01  0.40926473891E+01  0.17141387459E+03  0.17120000000E+03 0.  0.
        998    1    1    2    0    0 -0.16326830246E+02 -0.28123320364E+01  0.14241782215E+04  0.14243096859E+04  0.10000000000E+02 0. -1.
</event>
<event>
 5    1  0.1360042E-008  0.3721447E+03  0.7957747E-01  0.3486092E+00
         13   -1    0    0    0    0  0.00000000000E+00  0.00000000000E+00  0.14999999963E+04  0.15000000000E+04  0.10566000000E+00 0.  1.
        994   -1    0    0    0    0 -0.00000000000E+00 -0.00000000000E+00  0.11368683772E-12  0.17120000000E+03  0.17120000000E+03 0.  0.
         13    1    1    2    0    0 -0.20664048743E+02  0.17222191106E+02  0.42770276919E+02  0.50526374585E+02  0.10566000000E+00 0.  1.
        994    1    1    2    0    0  0.69055318157E+01  0.14205238652E+01  0.83229706068E+01  0.17154712500E+03  0.17120000000E+03 0.  0.
        998    1    1    2    0    0  0.13758516927E+02 -0.18642714971E+02  0.14489067488E+04  0.14491265004E+04  0.10000000000E+02 0.  1.
</event>
<event>
 5    1  0.1360042E-008  0.3831890E+03  0.7957747E-01  0.3437389E+00
         13   -1    0    0    0    0  0.00000000000E+00  0.00000000000E+00  0.14999999963E+04  0.15000000000E+04  0.10566000000E+00 0.  1.
        994   -1    0    0    0    0 -0.00000000000E+00 -0.00000000000E+00  0.11368683772E-12  0.17120000000E+03  0.17120000000E+03 0.  0.
         13    1    1    2    0    0  0.13943731149E+01  0.23600554211E+02  0.10358193239E+03  0.10624574494E+03  0.10566000000E+00 0.  1.
        994    1    1    2    0    0 -0.12552366948E+01 -0.23414370109E+02  0.43528498728E+01  0.17285310425E+03  0.17120000000E+03 0.  0.
        998    1    1    2    0    0 -0.13913642010E+00 -0.18618410196E+00  0.13920652140E+04  0.13921011508E+04  0.10000000000E+02 0.  0.
</event>
<event>
 5    1  0.1360042E-008  0.3744425E+03  0.7957747E-01  0.3475720E+00
         13   -1    0    0    0    0  0.00000000000E+00  0.00000000000E+00  0.14999999963E+04  0.15000000000E+04  0.10566000000E+00 0.  1.
        994   -1    0    0    0    0 -0.00000000000E+00 -0.00000000000E+00  0.11368683772E-12  0.17120000000E+03  0.17120000000E+03 0.  0.
         13    1    1    2    0    0 -0.17135006078E+02 -0.52297097080E+01  0.20090170279E+02  0.26918105483E+02  0.10566000000E+00 0.  1.
        994    1    1    2    0    0  0.11238849761E+02  0.42381967758E+01  0.74567898579E+01  0.17178276331E+03  0.17120000000E+03 0.  0.
        998    1    1    2    0    0  0.58961563177E+01  0.99151293226E+00  0.14724530361E+04  0.14724991312E+04  0.10000000000E+02 0.  1.
</event>
<event>
 5    1  0.1360042E-008  0.3810269E+03  0.7957747E-01  0.3446699E+00
         13   -1    0    0    0    0  0.00000000000E+00  0.00000000000E+00  0.14999999963E+04  0.15000000000E+04  0.10566000000E+00 0. -1.
        994   -1    0    0    0    0 -0.00000000000E+00 -0.00000000000E+00  0.11368683772E-12  0.17120000000E+03  0.17120000000E+03 0.  0.
         13    1    1    2    0    0  0.14388233738E+02  0.22499180662E+02  0.91875646971E+02  0.95678524606E+02  0.10566000000E+00 0. -1.
        994    1    1    2    0    0 -0.13396923792E+02 -0.24254774351E+02  0.61778137521E+01  0.17353782593E+03  0.17120000000E+03 0.  0.
        998    1    1    2    0    0 -0.99130994595E+00  0.17555936898E+01  0.14019465356E+04  0.14019836495E+04  0.10000000000E+02 0. -1.
</event>
<event>
 5    1  0.1360042E-008  0.3770031E+03  0.7957747E-01  0.3464312E+00
         13   -1    0    0    0    0  0.00000000000E+00  0.00000000000E+00  0.14999999963E+04  0.15000000000E+04  0.10566000000E+00 0. -1.
        994   -1    0    0    0    0 -0.00000000000E+00 -0.00000000000E+00  0.11368683772E-12  0.17120000000E+03  0.17120000000E+03 0.  0.
         13    1    1    2    0    0  0.65048329499E+02 -0.26441336235E+02  0.39537346142E+03  0.40156022536E+03  0.10566000000E+00 0. -1.
        994    1    1    2    0    0 -0.44300384639E+02  0.23443059459E+02  0.14182961836E+02  0.17894886846E+03  0.17120000000E+03 0.  0.
        998    1    1    2    0    0 -0.20747944861E+02  0.29982767764E+01  0.10904435730E+04  0.10906909062E+04  0.10000000000E+02 0. -1.
</event>
<event>
 5    1  0.1360042E-008  0.3817032E+03  0.7957747E-01  0.3443776E+00
         13   -1    0    0    0    0  0.00000000000E+00  0.00000000000E+00  0.14999999963E+04  0.15000000000E+04  0.10566000000E+00 0.  1.
        994   -1    0    0    0    0 -0.00000000000E+00 -0.00000000000E+00  0.11368683772E-12  0.17120000000E+03  0.17120000000E+03 0.  0.
         13    1    1    2    0    0  0.50320142889E+01  0.99593312705E+01  0.18075223050E+02  0.21242276232E+02  0.10566000000E+00 0.  1.
        994    1    1    2    0    0 -0.44410833036E+01  0.24784530309E+01  0.33618116613E+01  0.17130851622E+03  0.17120000000E+03 0.  0.
        998    1    1    2    0    0 -0.59093098535E+00 -0.12437784301E+02  0.14785629616E+04  0.14786492076E+04  0.10000000000E+02 0.  1.
</event>
<event>
 5    1  0.1360042E-008  0.3821708E+03  0.7957747E-01  0.3441761E+00
         13   -1    0    0    0    0  0.00000000000E+00  0.00000000000E+00  0.14999999963E+04  0.15000000000E+04  0.10566000000E+00 0. -1.
        994   -1    0    0    0    0 -0.00000000000E+00 -0.00000000000E+00  0.11368683772E-12  0.17120000000E+03  0.17120000000E+03 0.  0.
         13    1    1    2    0    0 -0.81322302457E+00  0.17974584214E+02  0.54113697824E+02  0.57026752192E+02  0.10566000000E+00 0. -1.
        994    1    1    2    0    0 -0.22106241693E+01 -0.37676648535E+01  0.31046791230E+01  0.17128386144E+03  0.17120000000E+03 0.  0.
        998    1    1    2    0    0  0.30238471939E+01 -0.14206919360E+02  0.14427816193E+04  0.14428893864E+04  0.10000000000E+02 0. -1.
</event>
<event>
 5    1  0.1360042E-008  0.3838178E+03  0.7957747E-01  0.3434702E+00
         13   -1    0    0    0    0  0.00000000000E+00  0.00000000000E+00  0.14999999963E+04  0.15000000000E+04  0.10566000000E+00 0.  1.
        994   -1    0    0    0    0 -0.00000000000E+00 -0.00000000000E+00  0.11368683772E-12  0.17120000000E+03  0.17120000000E+03 0.  0.
         13    1    1    2    0    0  0.48021328685E+01  0.12917767768E+02  0.42945299424E+02  0.45102539960E+02  0.10566000000E+00 0.  1.
        994    1    1    2    0    0 -0.64309699890E+01 -0.36135431219E+01  0.23979007899E+01  0.17137562545E+03  0.17120000000E+03 0.  0.
        998    1    1    2    0    0  0.16288371206E+01 -0.93042246459E+01  0.14546567961E+04  0.14547218346E+04  0.10000000000E+02 0.  1.
</event>
<event>
 5    1  0.1360042E-008  0.3077546E+03  0.7957747E-01  0.3842168E+00
         13   -1    0    0    0    0  0.00000000000E+00  0.00000000000E+00  0.14999999963E+04  0.15000000000E+04  0.10566000000E+00 0.  1.
        994   -1    0    0    0    0 -0.00000000000E+00 -0.00000000000E+00  0.11368683772E-12  0.17120000000E+03  0.17120000000E+03 0.  0.
         13    1    1    2    0    0  0.26560037079E+03  0.10804645782E+03  0.71674805280E+03  0.77197498429E+03  0.10566000000E+00 0.  1.
        994    1    1    2    0    0 -0.16360790355E+03 -0.63507687444E+02  0.23468313916E+03  0.33939120241E+03  0.17120000000E+03 0.  0.
        998    1    1    2    0    0 -0.10199246725E+03 -0.44538770377E+02  0.54856880433E+03  0.55983381331E+03  0.10000000000E+02 0.  1.
</event>
<event>
 5    1  0.1360042E-008  0.3827380E+03  0.7957747E-01  0.3439322E+00
         13   -1    0    0    0    0  0.00000000000E+00  0.00000000000E+00  0.14999999963E+04  0.15000000000E+04  0.10566000000E+00 0.  1.
        994   -1    0    0    0    0 -0.00000000000E+00 -0.00000000000E+00  0.11368683772E-12  0.17120000000E+03  0.17120000000E+03 0.  0.
         13    1    1    2    0    0  0.23816115267E+01  0.19809544005E+02  0.64174934134E+02  0.67205084943E+02  0.10566000000E+00 0.  1.
        994    1    1    2    0    0 -0.36283942070E+01 -0.34240958077E+02  0.66951498015E+01  0.17475661214E+03  0.17120000000E+03 0.  0.
        998    1    1    2    0    0  0.12467826802E+01  0.14431414071E+02  0.14291299123E+04  0.14292383029E+04  0.10000000000E+02 0.  1.
</event>
<event>
 5    1  0.1360042E-008  0.3852620E+03  0.7957747E-01  0.3428562E+00
         13   -1    0    0    0    0  0.00000000000E+00  0.00000000000E+00  0.14999999963E+04  0.15000000000E+04  0.10566000000E+00 0. -1.
        994   -1    0    0    0    0 -0.00000000000E+00 -0.00000000000E+00  0.11368683772E-12  0.17120000000E+03  0.17120000000E+03 0.  0.
         13    1    1    2    0    0  0.21056707947E+01  0.15704683417E+02  0.79384597263E+02  0.80950579846E+02  0.10566000000E+00 0. -1.
        994    1    1    2    0    0 -0.43223916878E+01 -0.17607808902E+02  0.25809577811E+01  0.17217670965E+03  0.17120000000E+03 0.  0.
        998    1    1    2    0    0  0.22167208931E+01  0.19031254853E+01  0.14180344412E+04  0.14180727105E+04  0.10000000000E+02 0. -1.
</event>
<event>
 5    1  0.1360042E-008  0.3838679E+03  0.7957747E-01  0.3434488E+00
         13   -1    0    0    0    0  0.00000000000E+00  0.00000000000E+00  0.14999999963E+04  0.15000000000E+04  0.10566000000E+00 0. -1.
        994   -1    0    0    0    0 -0.00000000000E+00 -0.00000000000E+00  0.11368683772E-12  0.17120000000E+03  0.17120000000E+03 0.  0.
         13    1    1    2    0    0  0.51745752504E+01  0.18502807337E+02  0.71917792271E+02  0.74439976609E+02  0.10566000000E+00 0. -1.
        994    1    1    2    0    0  0.47707166840E+00 -0.40756889858E+02  0.76963583179E+01  0.17615341495E+03  0.17120000000E+03 0.  0.
        998    1    1    2    0    0 -0.56516469188E+01  0.22254082521E+02  0.14203858457E+04  0.14206066084E+04  0.10000000000E+02 0. -1.
</event>
<event>
 5    1  0.1360042E-008  0.3812709E+03  0.7957747E-01  0.3445643E+00
         13   -1    0    0    0    0  0.00000000000E+00  0.00000000000E+00  0.14999999963E+04  0.15000000000E+04  0.10566000000E+00 0.  1.
        994   -1    0    0    0    0 -0.00000000000E+00 -0.00000000000E+00  0.11368683772E-12  0.17120000000E+03  0.17120000000E+03 0.  0.
         13    1    1    2    0    0  0.35749289691E+01  0.19360368428E+02  0.54430781215E+02  0.57881992800E+02  0.10566000000E+00 0.  1.
        994    1    1    2    0    0 -0.84208456549E+01 -0.10657934449E+02  0.41074237793E+01  0.17178711575E+03  0.17120000000E+03 0.  0.
        998    1    1    2    0    0  0.48459166858E+01 -0.87024339793E+01  0.14414617913E+04  0.14415308914E+04  0.10000000000E+02 0.  1.
</event>
<event>
 5    1  0.1360042E-008  0.3859408E+03  0.7957747E-01  0.3425692E+00
         13   -1    0    0    0    0  0.00000000000E+00  0.00000000000E+00  0.14999999963E+04  0.15000000000E+04  0.10566000000E+00 0.  1.
        994   -1    0    0    0    0 -0.00000000000E+00 -0.00000000000E+00  0.11368683772E-12  0.17120000000E+03  0.17120000000E+03 0.  0.
         13    1    1    2    0    0  0.95139896094E+01 -0.98311326529E+01  0.80028446451E+02  0.81189473289E+02  0.10566000000E+00 0.  1.
        994    1    1    2    0    0 -0.85213824356E+00  0.14454764671E+02  0.18514980642E+01  0.17182122804E+03  0.17120000000E+03 0.  0.
        998    1    1    2    0    0 -0.86618513658E+01 -0.46236320177E+01  0.14181200518E+04  0.14181892987E+04  0.10000000000E+02 0.  1.
</event>
<event>
 5    1  0.1360042E-008  0.3717077E+03  0.7957747E-01  0.3488079E+00
         13   -1    0    0    0    0  0.00000000000E+00  0.00000000000E+00  0.14999999963E+04  0.15000000000E+04  0.10566000000E+00 0. -1.
        994   -1    0    0    0    0 -0.00000000000E+00 -0.00000000000E+00  0.11368683772E-12  0.17120000000E+03  0.17120000000E+03 0.  0.
         13    1    1    2    0    0  0.10051068051E+03  0.39332106825E+02  0.65270711437E+03  0.66157085776E+03  0.10566000000E+00 0. -1.
        994    1    1    2    0    0 -0.62098072488E+02 -0.30192126385E+02  0.24950417367E+02  0.18627855064E+03  0.17120000000E+03 0.  0.
        998    1    1    2    0    0 -0.38412608021E+02 -0.91399804402E+01  0.82234246454E+03  0.82335059160E+03  0.10000000000E+02 0. -1.
</event>
<event>
 5    1  0.1360042E-008  0.3712796E+03  0.7957747E-01  0.3490031E+00
         13   -1    0    0    0    0  0.00000000000E+00  0.00000000000E+00  0.14999999963E+04  0.15000000000E+04  0.10566000000E+00 0. -1.
        994   -1    0    0    0    0 -0.00000000000E+00 -0.00000000000E+00  0.11368683772E-12  0.17120000000E+03  0.17120000000E+03 0.  0.
         13    1    1    2    0    0 -0.19280504862E+02 -0.52652329066E+01  0.19319334893E+02  0.27797633173E+02  0.10566000000E+00 0. -1.
        994    1    1    2    0    0  0.17987192405E+02  0.60846926487E+01  0.98439704332E+01  0.17253088515E+03  0.17120000000E+03 0.  0.
        998    1    1    2    0    0  0.12933124569E+01 -0.81945974210E+00  0.14708366910E+04  0.14708714817E+04  0.10000000000E+02 0. -1.
</event>
<event>
 5    1  0.1360042E-008  0.3755718E+03  0.7957747E-01  0.3470669E+00
         13   -1    0    0    0    0  0.00000000000E+00  0.00000000000E+00  0.14999999963E+04  0.15000000000E+04  0.10566000000E+00 0. -1.
        994   -1    0    0    0    0 -0.00000000000E+00 -0.00000000000E+00  0.11368683772E-12  0.17120000000E+03  0.17120000000E+03 0.  0.
         13    1    1    2    0    0  0.12233302928E+02  0.52304647816E+02  0.18627281717E+03  0.19386336288E+03  0.10566000000E+00 0. -1.
        994    1    1    2    0    0 -0.17861958044E+02 -0.60652281814E+02  0.20071327731E+02  0.18360296030E+03  0.17120000000E+03 0.  0.
        998    1    1    2    0    0  0.56286551154E+01  0.83476339977E+01  0.12936558514E+04  0.12937336768E+04  0.10000000000E+02 0. -1.
</event>
<event>
 5    1  0.1360042E-008  0.3819132E+03  0.7957747E-01  0.3442870E+00
         13   -1    0    0    0    0  0.00000000000E+00  0.00000000000E+00  0.14999999963E+04  0.15000000000E+04  0.10566000000E+00 0. -1.
        994   -1    0    0    0    0 -0.00000000000E+00 -0.00000000000E+00  0.11368683772E-12  0.17120000000E+03  0.17120000000E+03 0.  0.
         13    1    1    2    0    0 -0.14915885747E+02  0.27824365796E+02  0.18012446286E+03  0.18287020606E+03  0.10566000000E+00 0. -1.
        994    1    1    2    0    0  0.34893963159E+01  0.85300916601E+00  0.32133659904E+01  0.17126782895E+03  0.17120000000E+03 0.  0.
        998    1    1    2    0    0  0.11426489431E+02 -0.28677374962E+02  0.13166621674E+04  0.13170619650E+04  0.10000000000E+02 0. -1.
</event>
<event>
 5    1  0.1360042E-008  0.3847524E+03  0.7957747E-01  0.3430723E+00
         13   -1    0    0    0    0  0.00000000000E+00  0.00000000000E+00  0.14999999963E+04  0.15000000000E+04  0.10566000000E+00 0.  1.
        994   -1    0    0    0    0 -0.00000000000E+00 -0.00000000000E+00  0.11368683772E-12  0.17120000000E+03  0.17120000000E+03 0.  0.
         13    1    1    2    0    0 -0.97800547595E+01 -0.12899760944E+02  0.79392618986E+02  0.81026245236E+02  0.10566000000E+00 0.  1.
        994    1    1    2    0    0 -0.11976938709E+02  0.11424185056E+02  0.26553052071E+01  0.17201874814E+03  0.17120000000E+03 0.  0.
        998    1    1    2    0    0  0.21756993468E+02  0.14755758875E+01  0.14179520721E+04  0.14181550066E+04  0.10000000000E+02 0.  1.
</event>
<event>
 5    1  0.1360042E-008  0.3853730E+03  0.7957747E-01  0.3428092E+00
         13   -1    0    0    0    0  0.00000000000E+00  0.00000000000E+00  0.14999999963E+04  0.15000000000E+04  0.10566000000E+00 0.  1.
        994   -1    0    0    0    0 -0.00000000000E+00 -0.00000000000E+00  0.11368683772E-12  0.17120000000E+03  0.17120000000E+03 0.  0.
         13    1    1    2    0    0  0.11340287018E+01  0.12475550140E+02  0.56098987601E+02  0.57480718039E+02  0.10566000000E+00 0.  1.
        994    1    1    2    0    0  0.13140651230E+02 -0.51109432682E+01  0.20983097190E+01  0.17179243685E+03  0.17120000000E+03 0.  0.
        998    1    1    2    0    0 -0.14274679931E+02 -0.73646068721E+01  0.14418026990E+04  0.14419268451E+04  0.10000000000E+02 0.  1.
</event>
<event>
 5    1  0.1360042E-008  0.3806554E+03  0.7957747E-01  0.3448310E+00
         13   -1    0    0    0    0  0.00000000000E+00  0.00000000000E+00  0.14999999963E+04  0.15000000000E+04  0.10566000000E+00 0. -1.
        994   -1    0    0    0    0 -0.00000000000E+00 -0.00000000000E+00  0.11368683772E-12  0.17120000000E+03  0.17120000000E+03 0.  0.
         13    1    1    2    0    0  0.94484541330E+01  0.44582562046E+01  0.12580270728E+02  0.16353094800E+02  0.10566000000E+00 0. -1.
        994    1    1    2    0    0 -0.12422890012E+02 -0.99579949339E+00  0.43209552493E+01  0.17170739782E+03  0.17120000000E+03 0.  0.
        998    1    1    2    0    0  0.29744358787E+01 -0.34624567112E+01  0.14830987703E+04  0.14831395074E+04  0.10000000000E+02 0. -1.
</event>
<event>
 5    1  0.1360042E-008  0.3854314E+03  0.7957747E-01  0.3427845E+00
         13   -1    0    0    0    0  0.00000000000E+00  0.00000000000E+00  0.14999999963E+04  0.15000000000E+04  0.10566000000E+00 0.  1.
        994   -1    0    0    0    0 -0.00000000000E+00 -0.00000000000E+00  0.11368683772E-12  0.17120000000E+03  0.17120000000E+03 0.  0.
         13    1    1    2    0    0  0.14369374509E+02 -0.82524136689E+01  0.99471229768E+02  0.10084204466E+03  0.10566000000E+00 0.  1.
        994    1    1    2    0    0 -0.76430991687E+01  0.29381711305E+01  0.16363396025E+01  0.17140352220E+03  0.17120000000E+03 0.  0.
        998    1    1    2    0    0 -0.67262753407E+01  0.53142425384E+01  0.13988924269E+04  0.13989544331E+04  0.10000000000E+02 0.  1.
</event>
<event>
 5    1  0.1360042E-008  0.4108387E+03  0.7957747E-01  0.3326973E+00
         13   -1    0    0    0    0  0.00000000000E+00  0.00000000000E+00  0.14999999963E+04  0.15000000000E+04  0.10566000000E+00 0. -1.
        994   -1    0    0    0    0 -0.00000000000E+00 -0.00000000000E+00  0.11368683772E-12  0.17120000000E+03  0.17120000000E+03 0.  0.
         13    1    1    2    0    0 -0.75424760952E+01 -0.15616281808E+03  0.31228053167E+03  0.34923180886E+03  0.10566000000E+00 0. -1.
        994    1    1    2    0    0 -0.15261572631E+01  0.12200004688E+03  0.98552161119E+02  0.23218162945E+03  0.17120000000E+03 0.  0.
        998    1    1    2    0    0  0.90686333583E+01  0.34162771199E+02  0.10891673035E+04  0.10897865617E+04  0.10000000000E+02 0.  1.
</event>
<event>
 5    1  0.1360042E-008  0.3779270E+03  0.7957747E-01  0.3460235E+00
         13   -1    0    0    0    0  0.00000000000E+00  0.00000000000E+00  0.14999999963E+04  0.15000000000E+04  0.10566000000E+00 0.  1.
        994   -1    0    0    0    0 -0.00000000000E+00 -0.00000000000E+00  0.11368683772E-12  0.17120000000E+03  0.17120000000E+03 0.  0.
         13    1    1    2    0    0 -0.24132503546E+02 -0.36767514275E+02  0.16669695476E+03  0.17240102588E+03  0.10566000000E+00 0.  1.
        994    1    1    2    0    0  0.30906100654E+02  0.31134413474E+02  0.11688752551E+02  0.17711749122E+03  0.17120000000E+03 0.  0.
        998    1    1    2    0    0 -0.67735971085E+01  0.56331008004E+01  0.13216142890E+04  0.13216814829E+04  0.10000000000E+02 0.  1.
</event>
<event>
 5    1  0.1360042E-008  0.3840913E+03  0.7957747E-01  0.3433535E+00
         13   -1    0    0    0    0  0.00000000000E+00  0.00000000000E+00  0.14999999963E+04  0.15000000000E+04  0.10566000000E+00 0.  1.
        994   -1    0    0    0    0 -0.00000000000E+00 -0.00000000000E+00  0.11368683772E-12  0.17120000000E+03  0.17120000000E+03 0.  0.
         13    1    1    2    0    0  0.83309025431E+01  0.13759555147E+02  0.66078893078E+02  0.68008533064E+02  0.10566000000E+00 0.  1.
        994    1    1    2    0    0  0.14562542202E+02 -0.76467694884E+01  0.29747903537E+01  0.17201404041E+03  0.17120000000E+03 0.  0.
        998    1    1    2    0    0 -0.22893444745E+02 -0.61127856589E+01  0.14309463128E+04  0.14311774265E+04  0.10000000000E+02 0.  1.
</event>
<event>
 5    1  0.1360042E-008  0.3843469E+03  0.7957747E-01  0.3432447E+00
         13   -1    0    0    0    0  0.00000000000E+00  0.00000000000E+00  0.14999999963E+04  0.15000000000E+04  0.10566000000E+00 0.  1.
        994   -1    0    0    0    0 -0.00000000000E+00 -0.00000000000E+00  0.11368683772E-12  0.17120000000E+03  0.17120000000E+03 0.  0.
         13    1    1    2    0    0  0.10955621409E+02  0.18994336499E+02  0.11988250562E+03  0.12187139442E+03  0.10566000000E+00 0.  1.
        994    1    1    2    0    0  0.33447189595E+01 -0.21355395115E+02  0.34961221530E+01  0.17259462018E+03  0.17120000000E+03 0.  0.
        998    1    1    2    0    0 -0.14300340369E+02  0.23610586159E+01  0.13766213685E+04  0.13767339854E+04  0.10000000000E+02 0.  1.
</event>
<event>
 5    1  0.1360042E-008  0.3685071E+03  0.7957747E-01  0.3502780E+00
         13   -1    0    0    0    0  0.00000000000E+00  0.00000000000E+00  0.14999999963E+04  0.15000000000E+04  0.10566000000E+00 0.  1.
        994   -1    0    0    0    0 -0.00000000000E+00 -0.00000000000E+00  0.11368683772E-12  0.17120000000E+03  0.17120000000E+03 0.  0.
         13    1    1    2    0    0 -0.21791154345E+02 -0.35130849617E+02  0.78237195525E+02  0.88487857530E+02  0.10566000000E+00 0.  1.
        994    1    1    2    0    0  0.17461843276E+02  0.34584378404E+02  0.15286359040E+02  0.17619338232E+03  0.17120000000E+03 0.  0.
        998    1    1    2    0    0  0.43293110689E+01  0.54647121304E+00  0.14064764417E+04  0.14065187602E+04  0.10000000000E+02 0.  1.
</event>
<event>
 5    1  0.1360042E-008  0.3751525E+03  0.7957747E-01  0.3472541E+00
         13   -1    0    0    0    0  0.00000000000E+00  0.00000000000E+00  0.14999999963E+04  0.15000000000E+04  0.10566000000E+00 0. -1.
        994   -1    0    0    0    0 -0.00000000000E+00 -0.00000000000E+00  0.11368683772E-12  0.17120000000E+03  0.17120000000E+03 0.  0.
         13    1    1    2    0    0  0.41606434379E+02  0.53074539002E+02  0.34037015601E+03  0.34698682444E+03  0.10566000000E+00 0. -1.
        994    1    1    2    0    0 -0.40294138156E+02 -0.19007273623E+02  0.13374024529E+02  0.17740687290E+03  0.17120000000E+03 0.  0.
        998    1    1    2    0    0 -0.13122962227E+01 -0.34067265379E+02  0.11462558157E+04  0.11468063027E+04  0.10000000000E+02 0. -1.
</event>
<event>
 5    1  0.1599600E-008  0.3862338E+03  0.7957747E-01  0.3424456E+00
         13   -1    0    0    0    0  0.00000000000E+00  0.00000000000E+00  0.14999999963E+04  0.15000000000E+04  0.10566000000E+00 0. -1.
        994   -1    0    0    0    0 -0.00000000000E+00 -0.00000000000E+00  0.11368683772E-12  0.17120000000E+03  0.17120000000E+03 0.  0.
         13    1    1    2    0    0  0.76354877565E+01 -0.84483551958E+01  0.65917400045E+02  0.66893872451E+02  0.10566000000E+00 0. -1.
        994    1    1    2    0    0 -0.57126417549E+01  0.18413440482E+01  0.11368353386E+01  0.17130895253E+03  0.17120000000E+03 0.  0.
        998    1    1    2    0    0 -0.19228460016E+01  0.66070111475E+01  0.14329457609E+04  0.14329971750E+04  0.10000000000E+02 0. -1.
</event>
<event>
 5    1  0.1360042E-008  0.2608156E+03  0.7957747E-01  0.4222721E+00
         13   -1    0    0    0    0  0.00000000000E+00  0.00000000000E+00  0.14999999963E+04  0.15000000000E+04  0.10566000000E+00 0. -1.
        994   -1    0    0    0    0 -0.00000000000E+00 -0.00000000000E+00  0.11368683772E-12  0.17120000000E+03  0.17120000000E+03 0.  0.
         13    1    1    2    0    0 -0.40117123936E+02 -0.17253652647E+03  0.44150918879E+03  0.47571904686E+03  0.10566000000E+00 0. -1.
        994    1    1    2    0    0  0.32683159241E+02  0.12104147949E+03  0.98356566752E+02  0.23388604678E+03  0.17120000000E+03 0.  0.
        998    1    1    2    0    0  0.74339646948E+01  0.51495046973E+02  0.96013424074E+03  0.96159490636E+03  0.10000000000E+02 0. -1.
</event>
<event>
 5    1  0.1360042E-008  0.3828107E+03  0.7957747E-01  0.3439011E+00
         13   -1    0    0    0    0  0.00000000000E+00  0.00000000000E+00  0.14999999963E+04  0.15000000000E+04  0.10566000000E+00 0.  1.
        994   -1    0    0    0    0 -0.00000000000E+00 -0.00000000000E+00  0.11368683772E-12  0.17120000000E+03  0.17120000000E+03 0.  0.
         13    1    1    2    0    0  0.15059325308E+02 -0.56710109354E+01  0.46244559169E+02  0.48964416269E+02  0.10566000000E+00 0.  1.
        994    1    1    2    0    0 -0.13062553631E+02  0.24290668066E+01  0.33059378225E+01  0.17174661539E+03  0.17120000000E+03 0.  0.
        998    1    1    2    0    0 -0.19967716768E+01  0.32419441289E+01  0.14504494993E+04  0.14504889683E+04  0.10000000000E+02 0.  1.
</event>
<event>
 5    1  0.1360042E-008  0.3816141E+03  0.7957747E-01  0.3444160E+00
         13   -1    0    0    0    0  0.00000000000E+00  0.00000000000E+00  0.14999999963E+04  0.15000000000E+04  0.10566000000E+00 0.  1.
        994   -1    0    0    0    0 -0.00000000000E+00 -0.00000000000E+00  0.11368683772E-12  0.17120000000E+03  0.17120000000E+03 0.  0.
         13    1    1    2    0    0 -0.65871564173E+01 -0.33004288513E+02  0.16903398268E+03  0.17235188468E+03  0.10566000000E+00 0.  1.
        994    1    1    2    0    0  0.56298050290E-01  0.20456010066E+02  0.47132265154E+01  0.17248219045E+03  0.17120000000E+03 0.  0.
        998    1    1    2    0    0  0.65308583670E+01  0.12548278447E+02  0.13262527871E+04  0.13263659249E+04  0.10000000000E+02 0.  1.
</event>
<event>
 5    1  0.1360042E-008  0.3857401E+03  0.7957747E-01  0.3426540E+00
         13   -1    0    0    0    0  0.00000000000E+00  0.00000000000E+00  0.14999999963E+04  0.15000000000E+04  0.10566000000E+00 0. -1.
        994   -1    0    0    0    0 -0.00000000000E+00 -0.00000000000E+00  0.11368683772E-12  0.17120000000E+03  0.17120000000E+03 0.  0.
         13    1    1    2    0    0  0.61316429338E+01  0.12118378485E+02  0.77431469810E+02  0.78613585487E+02  0.10566000000E+00 0. -1.
        994    1    1    2    0    0  0.35052946064E+02 -0.23871392339E+02  0.71861773107E+01  0.17652091532E+03  0.17120000000E+03 0.  0.
        998    1    1    2    0    0 -0.41184588997E+02  0.11753013855E+02  0.14153823492E+04  0.14160654992E+04  0.10000000000E+02 0. -1.
</event>
<event>
 5    1  0.1360042E-008  0.3817831E+03  0.7957747E-01  0.3443431E+00
         13   -1    0    0    0    0  0.00000000000E+00  0.00000000000E+00  0.14999999963E+04  0.15000000000E+04  0.10566000000E+00 0.  1.
        994   -1    0    0    0    0 -0.00000000000E+00 -0.00000000000E+00  0.11368683772E-12  0.17120000000E+03  0.17120000000E+03 0.  0.
         13    1    1    2    0    0  0.20591649570E+02 -0.17187513867E+02  0.13096114782E+03  0.13367969205E+03  0.10566000000E+00 0.  1.
        994    1    1    2    0    0  0.15849789290E+01 -0.12598600968E+02  0.37717773322E+01  0.17171168629E+03  0.17120000000E+03 0.  0.
        998    1    1    2    0    0 -0.22176628499E+02  0.29786114836E+02  0.13652670711E+04  0.13658086217E+04  0.10000000000E+02 0.  1.
</event>
<event>
 5    1  0.1360042E-008  0.3072243E+03  0.7957747E-01  0.3845756E+00
         13   -1    0    0    0    0  0.00000000000E+00  0.00000000000E+00  0.14999999963E+04  0.15000000000E+04  0.10566000000E+00 0.  1.
        994   -1    0    0    0    0 -0.00000000000E+00 -0.00000000000E+00  0.11368683772E-12  0.17120000000E+03  0.17120000000E+03 0.  0.
         13    1    1    2    0    0  0.13725594167E+03 -0.10219436744E+03  0.79420892478E+03  0.81243504948E+03  0.10566000000E+00 0.  1.
        994    1    1    2    0    0 -0.94097371374E+02  0.68489490406E+02  0.67047552807E+02  0.21760041345E+03  0.17120000000E+03 0.  0.
        998    1    1    2    0    0 -0.43158570300E+02  0.33704877036E+02  0.63874351869E+03  0.64116453707E+03  0.10000000000E+02 0.  1.
</event>
<event>
 5    1  0.1360042E-008  0.3769618E+03  0.7957747E-01  0.3464495E+00
         13   -1    0    0    0    0  0.00000000000E+00  0.00000000000E+00  0.14999999963E+04  0.15000000000E+04  0.10566000000E+00 0.  1.
        994   -1    0    0    0    0 -0.00000000000E+00 -0.00000000000E+00  0.11368683772E-12  0.17120000000E+03  0.17120000000E+03 0.  0.
         13    1    1    2    0    0  0.18690910090E+02  0.23766670542E+01  0.29436692447E+02  0.34950374712E+02  0.10566000000E+00 0.  1.
        994    1    1    2    0    0 -0.60818724826E+01 -0.63495396326E+01  0.59358432590E+01  0.17152836518E+03  0.17120000000E+03 0.  0.
        998    1    1    2    0    0 -0.12609037607E+02  0.39728725783E+01  0.14646274606E+04  0.14647212601E+04  0.10000000000E+02 0.  1.
</event>
<event>
 5    1  0.1360042E-008  0.3222194E+03  0.7957747E-01  0.3749141E+00
         13   -1    0    0    0    0  0.00000000000E+00  0.00000000000E+00  0.14999999963E+04  0.15000000000E+04  0.10566000000E+00 0.  1.
        994   -1    0    0    0    0 -0.00000000000E+00 -0.00000000000E+00  0.11368683772E-12  0.17120000000E+03  0.17120000000E+03 0.  0.
         13    1    1    2    0    0  0.47968559167E+02  0.22536585015E+03  0.69954140860E+03  0.73651133229E+03  0.10566000000E+00 0.  1.
        994    1    1    2    0    0 -0.61232462322E+02 -0.22878584520E+03  0.25175548504E+03  0.38572353007E+03  0.17120000000E+03 0.  0.
        998    1    1    2    0    0  0.13263903154E+02  0.34199950524E+01  0.54870310264E+03  0.54896513763E+03  0.10000000000E+02 0.  0.
</event>
<event>
 5    1  0.1360042E-008  0.3862918E+03  0.7957747E-01  0.3424212E+00
         13   -1    0    0    0    0  0.00000000000E+00  0.00000000000E+00  0.14999999963E+04  0.15000000000E+04  0.10566000000E+00 0.  1.
        994   -1    0    0    0    0 -0.00000000000E+00 -0.00000000000E+00  0.11368683772E-12  0.17120000000E+03  0.17120000000E+03 0.  0.
         13    1    1    2    0    0  0.88826640406E+01  0.64614254620E+01  0.63790655399E+02  0.64729518920E+02  0.10566000000E+00 0.  1.
        994    1    1    2    0    0 -0.60775219298E+01  0.19185854710E+01  0.11231739963E+01  0.17132226581E+03  0.17120000000E+03 0.  0.
        998    1    1    2    0    0 -0.28051421108E+01 -0.83800109330E+01  0.14350861669E+04  0.14351482153E+04  0.10000000000E+02 0.  1.
</event>
<event>
 5    1  0.1360042E-008  0.3714870E+03  0.7957747E-01  0.3489084E+00
         13   -1    0    0    0    0  0.00000000000E+00  0.00000000000E+00  0.14999999963E+04  0.15000000000E+04  0.10566000000E+00 0.  1.
        994   -1    0    0    0    0 -0.00000000000E+00 -0.00000000000E+00  0.11368683772E-12  0.17120000000E+03  0.17120000000E+03 0.  0.
         13    1    1    2    0    0 -0.28208593313E+02 -0.11633849237E+01  0.45880238342E+02  0.53871009231E+02  0.10566000000E+00 0.  1.
        994    1    1    2    0    0 -0.14368209883E+01  0.43154230390E+02  0.14934623648E+02  0.17719152079E+03  0.17120000000E+03 0.  0.
        998    1    1    2    0    0  0.29645414301E+02 -0.41990845466E+02  0.14391851343E+04  0.14401374700E+04  0.10000000000E+02 0.  1.
</event>
<event>
 5    1  0.1360042E-008  0.3753952E+03  0.7957747E-01  0.3471457E+00
         13   -1    0    0    0    0  0.00000000000E+00  0.00000000000E+00  0.14999999963E+04  0.15000000000E+04  0.10566000000E+00 0.  1.
        994   -1    0    0    0    0 -0.00000000000E+00 -0.00000000000E+00  0.11368683772E-12  0.17120000000E+03  0.17120000000E+03 0.  0.
         13    1    1    2    0    0 -0.34934184399E+02  0.33739263780E+02  0.17100828148E+03  0.17777114124E+03  0.10566000000E+00 0.  1.
        994    1    1    2    0    0  0.22168918671E+02 -0.31220473674E+02  0.11469389713E+02  0.17580433963E+03  0.17120000000E+03 0.  0.
        998    1    1    2    0    0  0.12765265728E+02 -0.25187901056E+01  0.13175223251E+04  0.13176245191E+04  0.10000000000E+02 0.  0.
</event>
<event>
 5    1  0.1360042E-008  0.3845933E+03  0.7957747E-01  0.3431399E+00
         13   -1    0    0    0    0  0.00000000000E+00  0.00000000000E+00  0.14999999963E+04  0.15000000000E+04  0.10566000000E+00 0.  1.
        994   -1    0    0    0    0 -0.00000000000E+00 -0.00000000000E+00  0.11368683772E-12  0.17120000000E+03  0.17120000000E+03 0.  0.
         13    1    1    2    0    0 -0.56418510459E+01  0.98771427682E+01  0.35004957611E+02  0.36806883240E+02  0.10566000000E+00 0.  1.
        994    1    1    2    0    0 -0.61065102952E+00 -0.89800250574E+01  0.20990285816E+01  0.17144929182E+03  0.17120000000E+03 0.  0.
        998    1    1    2    0    0  0.62525020754E+01 -0.89711771079E+00  0.14628960101E+04  0.14629438249E+04  0.10000000000E+02 0.  1.
</event>
<event>
 5    1  0.1360042E-008  0.3837049E+03  0.7957747E-01  0.3435184E+00
         13   -1    0    0    0    0  0.00000000000E+00  0.00000000000E+00  0.14999999963E+04  0.15000000000E+04  0.10566000000E+00 0.  1.
        994   -1    0    0    0    0 -0.00000000000E+00 -0.00000000000E+00  0.11368683772E-12  0.17120000000E+03  0.17120000000E+03 0.  0.
         13    1    1    2    0    0 -0.12204507557E+02  0.15723987704E+02  0.80630610476E+02  0.83051190864E+02  0.10566000000E+00 0.  1.
        994    1    1    2    0    0  0.24180338626E+02 -0.12483895088E+02  0.47239652059E+01  0.17341364496E+03  0.17120000000E+03 0.  0.
        998    1    1    2    0    0 -0.11975831069E+02 -0.32400926156E+01  0.14146454206E+04  0.14147351642E+04  0.10000000000E+02 0.  1.
</event>
<event>
 5    1  0.1360042E-008  0.3853377E+03  0.7957747E-01  0.3428241E+00
         13   -1    0    0    0    0  0.00000000000E+00  0.00000000000E+00  0.14999999963E+04  0.15000000000E+04  0.10566000000E+00 0. -1.
        994   -1    0    0    0    0 -0.00000000000E+00 -0.00000000000E+00  0.11368683772E-12  0.17120000000E+03  0.17120000000E+03 0.  0.
         13    1    1    2    0    0 -0.11374055670E+02 -0.31063824149E+01  0.47708160822E+02  0.49143651951E+02  0.10566000000E+00 0. -1.
        994    1    1    2    0    0  0.48312511868E+01  0.11656513652E+02  0.19857758510E+01  0.17167585329E+03  0.17120000000E+03 0.  0.
        998    1    1    2    0    0  0.65428044829E+01 -0.85501312367E+01  0.14503060596E+04  0.14503804948E+04  0.10000000000E+02 0. -1.
</event>
<event>
 5    1  0.1360042E-008  0.3792889E+03  0.7957747E-01  0.3454261E+00
         13   -1    0    0    0    0  0.00000000000E+00  0.00000000000E+00  0.14999999963E+04  0.15000000000E+04  0.10566000000E+00 0. -1.
        994   -1    0    0    0    0 -0.00000000000E+00 -0.00000000000E+00  0.11368683772E-12  0.17120000000E+03  0.17120000000E+03 0.  0.
         13    1    1    2    0    0  0.17528210855E+02  0.35801118793E+02  0.15945730456E+03  0.16436423402E+03  0.10566000000E+00 0. -1.
        994    1    1    2    0    0 -0.22741982846E+02 -0.31828589823E+02  0.96372183658E+01  0.17587658426E+03  0.17120000000E+03 0.  0.
        998    1    1    2    0    0  0.52137719916E+01 -0.39725289700E+01  0.13309054734E+04  0.13309591817E+04  0.10000000000E+02 0. -1.
</event>
<event>
 5    1  0.1360042E-008  0.3839501E+03  0.7957747E-01  0.3434137E+00
         13   -1    0    0    0    0  0.00000000000E+00  0.00000000000E+00  0.14999999963E+04  0.15000000000E+04  0.10566000000E+00 0.  1.
        994   -1    0    0    0    0 -0.00000000000E+00 -0.00000000000E+00  0.11368683772E-12  0.17120000000E+03  0.17120000000E+03 0.  0.
         13    1    1    2    0    0 -0.15800247858E+02 -0.23377085506E+02  0.16864654466E+03  0.17099065516E+03  0.10566000000E+00 0.  1.
        994    1    1    2    0    0  0.19765339397E+02  0.19103326551E+02  0.46496834530E+01  0.17345508146E+03  0.17120000000E+03 0.  0.
        998    1    1    2    0    0 -0.39650915397E+01  0.42737589545E+01  0.13267037682E+04  0.13267542634E+04  0.10000000000E+02 0.  1.
</event>
<event>
 5    1  0.1360042E-008  0.3716085E+03  0.7957747E-01  0.3488531E+00
         13   -1    0    0    0    0  0.00000000000E+00  0.00000000000E+00  0.14999999963E+04  0.15000000000E+04  0.10566000000E+00 0. -1.
        994   -1    0    0    0    0 -0.00000000000E+00 -0.00000000000E+00  0.11368683772E-12  0.17120000000E+03  0.17120000000E+03 0.  0.
         13    1    1    2    0    0  0.65873462805E+02  0.36475494918E+01  0.32593772734E+03  0.33254778753E+03  0.10566000000E+00 0. -1.
        994    1    1    2    0    0 -0.51389341280E+01 -0.24972489967E+01  0.85430276017E+01  0.17150821618E+03  0.17120000000E+03 0.  0.
        998    1    1    2    0    0 -0.60734528678E+02 -0.11503004951E+01  0.11655192413E+04  0.11671439963E+04  0.10000000000E+02 0. -1.
</event>
<event>
 5    1  0.1360042E-008  0.3806695E+03  0.7957747E-01  0.3448249E+00
         13   -1    0    0    0    0  0.00000000000E+00  0.00000000000E+00  0.14999999963E+04  0.15000000000E+04  0.10566000000E+00 0.  1.
        994   -1    0    0    0    0 -0.00000000000E+00 -0.00000000000E+00  0.11368683772E-12  0.17120000000E+03  0.17120000000E+03 0.  0.
         13    1    1    2    0    0 -0.82442769988E-02  0.17703323245E+02  0.40111866488E+02  0.43844962299E+02  0.10566000000E+00 0.  1.
        994    1    1    2    0    0 -0.20307400900E+00 -0.10009513817E+02  0.41299899459E+01  0.17154220595E+03  0.17120000000E+03 0.  0.
        998    1    1    2    0    0  0.21131828600E+00 -0.76938094280E+01  0.14557581398E+04  0.14558128317E+04  0.10000000000E+02 0.  1.
</event>
<event>
 5    1  0.1360042E-008  0.3812683E+03  0.7957747E-01  0.3445655E+00
         13   -1    0    0    0    0  0.00000000000E+00  0.00000000000E+00  0.14999999963E+04  0.15000000000E+04  0.10566000000E+00 0.  1.
        994   -1    0    0    0    0 -0.00000000000E+00 -0.00000000000E+00  0.11368683772E-12  0.17120000000E+03  0.17120000000E+03 0.  0.
         13    1    1    2    0    0 -0.16845250201E+02  0.31777362469E+01  0.39067998940E+02  0.42663569556E+02  0.10566000000E+00 0.  1.
        994    1    1    2    0    0  0.22944194278E+02 -0.35810006870E+01  0.52915254492E+01  0.17284877743E+03  0.17120000000E+03 0.  0.
        998    1    1    2    0    0 -0.60989440776E+01  0.40326444010E+00  0.14556404719E+04  0.14556876530E+04  0.10000000000E+02 0.  1.
</event>
<event>
 5    1  0.1360042E-008  0.3843155E+03  0.7957747E-01  0.3432580E+00
         13   -1    0    0    0    0  0.00000000000E+00  0.00000000000E+00  0.14999999963E+04  0.15000000000E+04  0.10566000000E+00 0. -1.
        994   -1    0    0    0    0 -0.00000000000E+00 -0.00000000000E+00  0.11368683772E-12  0.17120000000E+03  0.17120000000E+03 0.  0.
         13    1    1    2    0    0 -0.24818096074E+02  0.32801327848E+01  0.15107481936E+03  0.15313493844E+03  0.10566000000E+00 0. -1.
        994    1    1    2    0    0  0.20326762571E+02 -0.44171606109E+01  0.33977829096E+01  0.17249253176E+03  0.17120000000E+03 0.  0.
        998    1    1    2    0    0  0.44913335028E+01  0.11370278261E+01  0.13455273940E+04  0.13455725298E+04  0.10000000000E+02 0. -1.
</event>
<event>
 5    1  0.1360042E-008  0.3763681E+03  0.7957747E-01  0.3467127E+00
         13   -1    0    0    0    0  0.00000000000E+00  0.00000000000E+00  0.14999999963E+04  0.15000000000E+04  0.10566000000E+00 0. -1.
        994   -1    0    0    0    0 -0.00000000000E+00 -0.00000000000E+00  0.11368683772E-12  0.17120000000E+03  0.17120000000E+03 0.  0.
         13    1    1    2    0    0 -0.35686886872E+02  0.82790768377E+01  0.12000493244E+03  0.12547227575E+03  0.10566000000E+00 0. -1.
        994    1    1    2    0    0  0.36640897524E+01 -0.39611086850E+01  0.60764031743E+01  0.17139276126E+03  0.17120000000E+03 0.  0.
        998    1    1    2    0    0  0.32022797119E+02 -0.43179681527E+01  0.13739186607E+04  0.13743349630E+04  0.10000000000E+02 0. -1.
</event>
<event>
 5    1  0.1360042E-008  0.3729256E+03  0.7957747E-01  0.3482552E+00
         13   -1    0    0    0    0  0.00000000000E+00  0.00000000000E+00  0.14999999963E+04  0.15000000000E+04  0.10566000000E+00 0. -1.
        994   -1    0    0    0    0 -0.00000000000E+00 -0.00000000000E+00  0.11368683772E-12  0.17120000000E+03  0.17120000000E+03 0.  0.
         13    1    1    2    0    0 -0.13428994538E+02  0.17132824195E+02  0.28801826971E+02  0.36103018712E+02  0.10566000000E+00 0. -1.
        994    1    1    2    0    0  0.36521378833E+02  0.37025508129E+02  0.17063743891E+02  0.17973678177E+03  0.17120000000E+03 0.  0.
        998    1    1    2    0    0 -0.23092384296E+02 -0.54158332324E+02  0.14541344254E+04  0.14553601995E+04  0.10000000000E+02 0. -1.
</event>
<event>
 5    1  0.1360042E-008  0.3723881E+03  0.7957747E-01  0.3484987E+00
         13   -1    0    0    0    0  0.00000000000E+00  0.00000000000E+00  0.14999999963E+04  0.15000000000E+04  0.10566000000E+00 0. -1.
        994   -1    0    0    0    0 -0.00000000000E+00 -0.00000000000E+00  0.11368683772E-12  0.17120000000E+03  0.17120000000E+03 0.  0.
         13    1    1    2    0    0 -0.72451149056E+02  0.28299900228E+02  0.35469386609E+03  0.36312229779E+03  0.10566000000E+00 0. -1.
        994    1    1    2    0    0 -0.64524465111E+01  0.85081301411E+01  0.12609289978E+02  0.17199551313E+03  0.17120000000E+03 0.  0.
        998    1    1    2    0    0  0.78903595567E+02 -0.36808030370E+02  0.11326968402E+04  0.11360821891E+04  0.10000000000E+02 0. -1.
</event>
<event>
 5    1  0.1360042E-008  0.3834150E+03  0.7957747E-01  0.3436422E+00
         13   -1    0    0    0    0  0.00000000000E+00  0.00000000000E+00  0.14999999963E+04  0.15000000000E+04  0.10566000000E+00 0.  1.
        994   -1    0    0    0    0 -0.00000000000E+00 -0.00000000000E+00  0.11368683772E-12  0.17120000000E+03  0.17120000000E+03 0.  0.
         13    1    1    2    0    0  0.20912828273E+03  0.84018400350E+02  0.12867804520E+04  0.13063681231E+04  0.10566000000E+00 0.  1.
        994    1    1    2    0    0 -0.20670904561E+03 -0.84447473878E+02  0.19023234472E+03  0.33964362258E+03  0.17120000000E+03 0.  0.
        998    1    1    2    0    0 -0.24192371267E+01  0.42907352832E+00  0.22987199608E+02  0.25188254369E+02  0.10000000000E+02 0.  0.
</event>
<event>
 5    1  0.1360042E-008  0.3696736E+03  0.7957747E-01  0.3497392E+00
         13   -1    0    0    0    0  0.00000000000E+00  0.00000000000E+00  0.14999999963E+04  0.15000000000E+04  0.10566000000E+00 0. -1.
        994   -1    0    0    0    0 -0.00000000000E+00 -0.00000000000E+00  0.11368683772E-12  0.17120000000E+03  0.17120000000E+03 0.  0.
         13    1    1    2    0    0  0.38775945536E+01 -0.19675852697E+02  0.17274755924E+02  0.26468911484E+02  0.10566000000E+00 0. -1.
        994    1    1    2    0    0  0.10444434389E+02  0.15499649589E+02  0.10649891554E+02  0.17254618378E+03  0.17120000000E+03 0.  0.
        998    1    1    2    0    0 -0.14322028943E+02  0.41762031089E+01  0.14720753488E+04  0.14721849047E+04  0.10000000000E+02 0. -1.
</event>
<event>
 5    1  0.1360042E-008  0.3755270E+03  0.7957747E-01  0.3470869E+00
         13   -1    0    0    0    0  0.00000000000E+00  0.00000000000E+00  0.14999999963E+04  0.15000000000E+04  0.10566000000E+00 0. -1.
        994   -1    0    0    0    0 -0.00000000000E+00 -0.00000000000E+00  0.11368683772E-12  0.17120000000E+03  0.17120000000E+03 0.  0.
         13    1    1    2    0    0  0.75445816866E+02 -0.73227668668E+02  0.51184042667E+03  0.52252750767E+03  0.10566000000E+00 0. -1.
        994    1    1    2    0    0 -0.80009243320E+02  0.78129887198E+02  0.50099753611E+02  0.21053546875E+03  0.17120000000E+03 0.  0.
        998    1    1    2    0    0  0.45634264546E+01 -0.49022185303E+01  0.93805981600E+03  0.93813702358E+03  0.10000000000E+02 0. -1.
</event>
<event>
 5    1  0.1360042E-008  0.3786129E+03  0.7957747E-01  0.3457220E+00
         13   -1    0    0    0    0  0.00000000000E+00  0.00000000000E+00  0.14999999963E+04  0.15000000000E+04  0.10566000000E+00 0.  1.
        994   -1    0    0    0    0 -0.00000000000E+00 -0.00000000000E+00  0.11368683772E-12  0.17120000000E+03  0.17120000000E+03 0.  0.
         13    1    1    2    0    0 -0.12358472438E+01  0.11670094045E+02  0.12188780012E+02  0.16920281784E+02  0.10566000000E+00 0.  1.
        994    1    1    2    0    0 -0.60087508309E+01 -0.62801220740E+01  0.50887199542E+01  0.17149600605E+03  0.17120000000E+03 0.  0.
        998    1    1    2    0    0  0.72445980748E+01 -0.53899719708E+01  0.14827224963E+04  0.14827837122E+04  0.10000000000E+02 0.  1.
</event>
<event>
 5    1  0.1360042E-008  0.3689292E+03  0.7957747E-01  0.3500826E+00
         13   -1    0    0    0    0  0.00000000000E+00  0.00000000000E+00  0.14999999963E+04  0.15000000000E+04  0.10566000000E+00 0. -1.
        994   -1    0    0    0    0 -0.00000000000E+00 -0.00000000000E+00  0.11368683772E-12  0.17120000000E+03  0.17120000000E+03 0.  0.
         13    1    1    2    0    0 -0.51371163551E+02 -0.28304037249E+02  0.16598924692E+03  0.17604702846E+03  0.10566000000E+00 0. -1.
        994    1    1    2    0    0  0.35446287397E+02  0.23845524621E+02  0.16190378533E+02  0.17719090465E+03  0.17120000000E+03 0.  0.
        998    1    1    2    0    0  0.15924876154E+02  0.44585126282E+01  0.13178203708E+04  0.13179620669E+04  0.10000000000E+02 0. -1.
</event>
<event>
 5    1  0.1360042E-008  0.3747647E+03  0.7957747E-01  0.3474276E+00
         13   -1    0    0    0    0  0.00000000000E+00  0.00000000000E+00  0.14999999963E+04  0.15000000000E+04  0.10566000000E+00 0.  1.
        994   -1    0    0    0    0 -0.00000000000E+00 -0.00000000000E+00  0.11368683772E-12  0.17120000000E+03  0.17120000000E+03 0.  0.
         13    1    1    2    0    0 -0.51713136463E+01 -0.11055062937E+02  0.78044001655E+01  0.14487122812E+02  0.10566000000E+00 0.  1.
        994    1    1    2    0    0  0.48571346331E+01  0.11181028810E+02  0.73052957197E+01  0.17178886608E+03  0.17120000000E+03 0.  0.
        998    1    1    2    0    0  0.31417901316E+00 -0.12596587225E+00  0.14848903004E+04  0.14849240111E+04  0.10000000000E+02 0.  1.
</event>
<event>
 5    1  0.1360042E-008  0.3791491E+03  0.7957747E-01  0.3454872E+00
         13   -1    0    0    0    0  0.00000000000E+00  0.00000000000E+00  0.14999999963E+04  0.15000000000E+04  0.10566000000E+00 0.  1.
        994   -1    0    0    0    0 -0.00000000000E+00 -0.00000000000E+00  0.11368683772E-12  0.17120000000E+03  0.17120000000E+03 0.  0.
         13    1    1    2    0    0 -0.83824768994E+01  0.71800662100E+01  0.11324183722E+02  0.15813524931E+02  0.10566000000E+00 0.  1.
        994    1    1    2    0    0  0.84629320562E+01 -0.27403034225E+01  0.48286161539E+01  0.17149893882E+03  0.17120000000E+03 0.  0.
        998    1    1    2    0    0 -0.80455156727E-01 -0.44397627875E+01  0.14838471964E+04  0.14838875363E+04  0.10000000000E+02 0.  1.
</event>
<event>
 5    1  0.1360042E-008  0.3826948E+03  0.7957747E-01  0.3439508E+00
         13   -1    0    0    0    0  0.00000000000E+00  0.00000000000E+00  0.14999999963E+04  0.15000000000E+04  0.10566000000E+00 0. -1.
        994   -1    0    0    0    0 -0.00000000000E+00 -0.00000000000E+00  0.11368683772E-12  0.17120000000E+03  0.17120000000E+03 0.  0.
         13    1    1    2    0    0 -0.20218377756E+02 -0.21368370239E+02  0.17532686363E+03  0.17777769916E+03  0.10566000000E+00 0. -1.
        994    1    1    2    0    0  0.32574289014E+01  0.62648770782E+00  0.28154481498E+01  0.17125527752E+03  0.17120000000E+03 0.  0.
        998    1    1    2    0    0  0.16960948854E+02  0.20741882531E+02  0.13218576845E+04  0.13221670233E+04  0.10000000000E+02 0. -1.
</event>
<event>
 5    1  0.1360042E-008  0.3702684E+03  0.7957747E-01  0.3494658E+00
         13   -1    0    0    0    0  0.00000000000E+00  0.00000000000E+00  0.14999999963E+04  0.15000000000E+04  0.10566000000E+00 0. -1.
        994   -1    0    0    0    0 -0.00000000000E+00 -0.00000000000E+00  0.11368683772E-12  0.17120000000E+03  0.17120000000E+03 0.  0.
         13    1    1    2    0    0 -0.55542394180E+02 -0.52547852518E+02  0.25020394760E+03  0.26162618545E+03  0.10566000000E+00 0. -1.
        994    1    1    2    0    0  0.49791165749E+02  0.23568997479E+02  0.21776536357E+02  0.18115826055E+03  0.17120000000E+03 0.  0.
        998    1    1    2    0    0  0.57512284309E+01  0.28978855039E+02  0.12280195123E+04  0.12284155540E+04  0.10000000000E+02 0. -1.
</event>
<event>
 5    1  0.1360042E-008  0.3847565E+03  0.7957747E-01  0.3430706E+00
         13   -1    0    0    0    0  0.00000000000E+00  0.00000000000E+00  0.14999999963E+04  0.15000000000E+04  0.10566000000E+00 0. -1.
        994   -1    0    0    0    0 -0.00000000000E+00 -0.00000000000E+00  0.11368683772E-12  0.17120000000E+03  0.17120000000E+03 0.  0.
         13    1    1    2    0    0  0.20470410662E+01 -0.10322900560E+02  0.31538334435E+02  0.33248012814E+02  0.10566000000E+00 0. -1.
        994    1    1    2    0    0  0.16906417121E+01  0.59503363720E+01  0.18770491177E+01  0.17132200117E+03  0.17120000000E+03 0.  0.
        998    1    1    2    0    0 -0.37376827783E+01  0.43725641880E+01  0.14665846127E+04  0.14666299860E+04  0.10000000000E+02 0. -1.
</event>
<event>
 5    1  0.1360042E-008  0.3811704E+03  0.7957747E-01  0.3446078E+00
         13   -1    0    0    0    0  0.00000000000E+00  0.00000000000E+00  0.14999999963E+04  0.15000000000E+04  0.10566000000E+00 0.  1.
        994   -1    0    0    0    0 -0.00000000000E+00 -0.00000000000E+00  0.11368683772E-12  0.17120000000E+03  0.17120000000E+03 0.  0.
         13    1    1    2    0    0  0.62887814182E+01 -0.19999351148E+02  0.59334134374E+02  0.62929114756E+02  0.10566000000E+00 0.  1.
        994    1    1    2    0    0 -0.10431987068E+02  0.16725833476E+02  0.48385557259E+01  0.17239904722E+03  0.17120000000E+03 0.  0.
        998    1    1    2    0    0  0.41432056501E+01  0.32735176716E+01  0.14358273062E+04  0.14358718380E+04  0.10000000000E+02 0.  1.
</event>
<event>
 5    1  0.1360042E-008  0.3843609E+03  0.7957747E-01  0.3432387E+00
         13   -1    0    0    0    0  0.00000000000E+00  0.00000000000E+00  0.14999999963E+04  0.15000000000E+04  0.10566000000E+00 0. -1.
        994   -1    0    0    0    0 -0.00000000000E+00 -0.00000000000E+00  0.11368683772E-12  0.17120000000E+03  0.17120000000E+03 0.  0.
         13    1    1    2    0    0 -0.16338608061E+02  0.68652496391E+01  0.81561773289E+02  0.83465057312E+02  0.10566000000E+00 0. -1.
        994    1    1    2    0    0  0.11253764920E+02  0.30836877198E+01  0.23965945658E+01  0.17161392723E+03  0.17120000000E+03 0.  0.
        998    1    1    2    0    0  0.50848431416E+01 -0.99489373589E+01  0.14160416284E+04  0.14161210155E+04  0.10000000000E+02 0. -1.
</event>
<event>
 5    1  0.1360042E-008  0.3696137E+03  0.7957747E-01  0.3497668E+00
         13   -1    0    0    0    0  0.00000000000E+00  0.00000000000E+00  0.14999999963E+04  0.15000000000E+04  0.10566000000E+00 0. -1.
        994   -1    0    0    0    0 -0.00000000000E+00 -0.00000000000E+00  0.11368683772E-12  0.17120000000E+03  0.17120000000E+03 0.  0.
         13    1    1    2    0    0 -0.31832107102E+02  0.56023269039E+02  0.20493805567E+03  0.21482901932E+03  0.10566000000E+00 0. -1.
        994    1    1    2    0    0 -0.13333354124E+02 -0.34945947166E+02  0.15634772285E+02  0.17593431632E+03  0.17120000000E+03 0.  0.
        998    1    1    2    0    0  0.45165461226E+02 -0.21077321874E+02  0.12794271683E+04  0.12804366644E+04  0.10000000000E+02 0. -1.
</event>
<event>
 5    1  0.1360042E-008  0.3828137E+03  0.7957747E-01  0.3438998E+00
         13   -1    0    0    0    0  0.00000000000E+00  0.00000000000E+00  0.14999999963E+04  0.15000000000E+04  0.10566000000E+00 0. -1.
        994   -1    0    0    0    0 -0.00000000000E+00 -0.00000000000E+00  0.11368683772E-12  0.17120000000E+03  0.17120000000E+03 0.  0.
         13    1    1    2    0    0 -0.10359872028E+02 -0.11194129932E+02  0.41448894344E+02  0.44166248423E+02  0.10566000000E+00 0. -1.
        994    1    1    2    0    0  0.12022348949E+01  0.16421794401E+02  0.36179774163E+01  0.17202805138E+03  0.17120000000E+03 0.  0.
        998    1    1    2    0    0  0.91576371330E+01 -0.52276644692E+01  0.14549331245E+04  0.14550057002E+04  0.10000000000E+02 0. -1.
</event>
<event>
 5    1  0.1360042E-008  0.3855806E+03  0.7957747E-01  0.3427214E+00
         13   -1    0    0    0    0  0.00000000000E+00  0.00000000000E+00  0.14999999963E+04  0.15000000000E+04  0.10566000000E+00 0. -1.
        994   -1    0    0    0    0 -0.00000000000E+00 -0.00000000000E+00  0.11368683772E-12  0.17120000000E+03  0.17120000000E+03 0.  0.
         13    1    1    2    0    0 -0.78266205175E+01  0.75846839846E+01  0.45185140485E+02  0.46481087601E+02  0.10566000000E+00 0. -1.
        994    1    1    2    0    0 -0.34272950086E+01 -0.10283275522E+02  0.17279384686E+01  0.17155150211E+03  0.17120000000E+03 0.  0.
        998    1    1    2    0    0  0.11253915526E+02  0.26985915378E+01  0.14530869173E+04  0.14531674103E+04  0.10000000000E+02 0. -1.
</event>
<event>
 5    1  0.1360042E-008  0.3859547E+03  0.7957747E-01  0.3425633E+00
         13   -1    0    0    0    0  0.00000000000E+00  0.00000000000E+00  0.14999999963E+04  0.15000000000E+04  0.10566000000E+00 0. -1.
        994   -1    0    0    0    0 -0.00000000000E+00 -0.00000000000E+00  0.11368683772E-12  0.17120000000E+03  0.17120000000E+03 0.  0.
         13    1    1    2    0    0 -0.82242790374E+01  0.83750727496E+01  0.65601976879E+02  0.66643913028E+02  0.10566000000E+00 0. -1.
        994    1    1    2    0    0 -0.52836709956E+01 -0.44108780563E+00  0.12490724344E+01  0.17128663672E+03  0.17120000000E+03 0.  0.
        998    1    1    2    0    0  0.13507950033E+02 -0.79339849440E+01  0.14331489470E+04  0.14332694502E+04  0.10000000000E+02 0. -1.
</event>
<event>
 5    1  0.1360042E-008  0.3835623E+03  0.7957747E-01  0.3435793E+00
         13   -1    0    0    0    0  0.00000000000E+00  0.00000000000E+00  0.14999999963E+04  0.15000000000E+04  0.10566000000E+00 0.  1.
        994   -1    0    0    0    0 -0.00000000000E+00 -0.00000000000E+00  0.11368683772E-12  0.17120000000E+03  0.17120000000E+03 0.  0.
         13    1    1    2    0    0  0.40108803301E+01  0.14893943584E+02  0.52112778037E+02  0.54347672584E+02  0.10566000000E+00 0.  1.
        994    1    1    2    0    0  0.63731747758E+01 -0.39140532180E+01  0.25304590855E+01  0.17138197219E+03  0.17120000000E+03 0.  0.
        998    1    1    2    0    0 -0.10384055106E+02 -0.10979890366E+02  0.14453567592E+04  0.14454703552E+04  0.10000000000E+02 0.  1.
</event>
<event>
 5    1  0.1605169E-008  0.3861450E+03  0.7957747E-01  0.3424831E+00
         13   -1    0    0    0    0  0.00000000000E+00  0.00000000000E+00  0.14999999963E+04  0.15000000000E+04  0.10566000000E+00 0. -1.
        994   -1    0    0    0    0 -0.00000000000E+00 -0.00000000000E+00  0.11368683772E-12  0.17120000000E+03  0.17120000000E+03 0.  0.
         13    1    1    2    0    0 -0.20100458831E+01 -0.11819912069E+02  0.67855424670E+02  0.68906606555E+02  0.10566000000E+00 0. -1.
        994    1    1    2    0    0  0.27610315414E+01  0.89898495461E+01  0.13525559356E+01  0.17146343662E+03  0.17120000000E+03 0.  0.
        998    1    1    2    0    0 -0.75098565831E+00  0.28300625225E+01  0.14307920157E+04  0.14308299568E+04  0.10000000000E+02 0. -1.
</event>
<event>
 5    1  0.1360042E-008  0.3771375E+03  0.7957747E-01  0.3463718E+00
         13   -1    0    0    0    0  0.00000000000E+00  0.00000000000E+00  0.14999999963E+04  0.15000000000E+04  0.10566000000E+00 0.  1.
        994   -1    0    0    0    0 -0.00000000000E+00 -0.00000000000E+00  0.11368683772E-12  0.17120000000E+03  0.17120000000E+03 0.  0.
         13    1    1    2    0    0 -0.13605550807E+02 -0.64477248614E+00  0.14086701130E+02  0.19595230468E+02  0.10566000000E+00 0.  1.
        994    1    1    2    0    0  0.11444731508E+02  0.91652678503E+01  0.63110144407E+01  0.17194258611E+03  0.17120000000E+03 0.  0.
        998    1    1    2    0    0  0.21608192988E+01 -0.85204953642E+01  0.14796022807E+04  0.14796621834E+04  0.10000000000E+02 0.  1.
</event>
<event>
 5    1  0.1360042E-008  0.3831307E+03  0.7957747E-01  0.3437639E+00
         13   -1    0    0    0    0  0.00000000000E+00  0.00000000000E+00  0.14999999963E+04  0.15000000000E+04  0.10566000000E+00 0. -1.
        994   -1    0    0    0    0 -0.00000000000E+00 -0.00000000000E+00  0.11368683772E-12  0.17120000000E+03  0.17120000000E+03 0.  0.
         13    1    1    2    0    0 -0.24151366476E+02  0.16398684501E+02  0.15495177411E+03  0.15767773724E+03  0.10566000000E+00 0. -1.
        994    1    1    2    0    0  0.24762661648E+02 -0.95390844806E+01  0.48944920955E+01  0.17331352976E+03  0.17120000000E+03 0.  0.
        998    1    1    2    0    0 -0.61129517235E+00 -0.68596000205E+01  0.13401537301E+04  0.13402087330E+04  0.10000000000E+02 0. -1.
</event>
<event>
 5    1  0.1360042E-008  0.3684920E+03  0.7957747E-01  0.3502850E+00
         13   -1    0    0    0    0  0.00000000000E+00  0.00000000000E+00  0.14999999963E+04  0.15000000000E+04  0.10566000000E+00 0. -1.
        994   -1    0    0    0    0 -0.00000000000E+00 -0.00000000000E+00  0.11368683772E-12  0.17120000000E+03  0.17120000000E+03 0.  0.
         13    1    1    2    0    0 -0.23080005852E+02  0.29762673876E+01  0.23365799209E+02  0.32977516195E+02  0.10566000000E+00 0. -1.
        994    1    1    2    0    0 -0.18428687941E+01 -0.74665422764E+01  0.10349346823E+02  0.17168486945E+03  0.17120000000E+03 0.  0.
        998    1    1    2    0    0  0.24922874647E+02  0.44902748888E+01  0.14662848502E+04  0.14665376144E+04  0.10000000000E+02 0. -1.
</event>
<event>
 5    1  0.1360042E-008  0.3855512E+03  0.7957747E-01  0.3427338E+00
         13   -1    0    0    0    0  0.00000000000E+00  0.00000000000E+00  0.14999999963E+04  0.15000000000E+04  0.10566000000E+00 0. -1.
        994   -1    0    0    0    0 -0.00000000000E+00 -0.00000000000E+00  0.11368683772E-12  0.17120000000E+03  0.17120000000E+03 0.  0.
         13    1    1    2    0    0  0.84559963394E+01 -0.76420835025E+01  0.47982763967E+02  0.49317969507E+02  0.10566000000E+00 0. -1.
        994    1    1    2    0    0 -0.29038567732E+02 -0.18270308426E+02  0.52302658802E+01  0.17468210632E+03  0.17120000000E+03 0.  0.
        998    1    1    2    0    0  0.20582571393E+02  0.25912391929E+02  0.14467869664E+04  0.14471999242E+04  0.10000000000E+02 0. -1.
</event>
<event>
 5    1  0.1360042E-008  0.3846996E+03  0.7957747E-01  0.3430947E+00
         13   -1    0    0    0    0  0.00000000000E+00  0.00000000000E+00  0.14999999963E+04  0.15000000000E+04  0.10566000000E+00 0.  1.
        994   -1    0    0    0    0 -0.00000000000E+00 -0.00000000000E+00  0.11368683772E-12  0.17120000000E+03  0.17120000000E+03 0.  0.
         13    1    1    2    0    0 -0.16080912822E+02 -0.55945361868E+01  0.80540220998E+02  0.82320307062E+02  0.10566000000E+00 0.  1.
        994    1    1    2    0    0  0.11336770445E+02  0.54059764340E+01  0.22987997614E+01  0.17167548289E+03  0.17120000000E+03 0.  0.
        998    1    1    2    0    0  0.47441423772E+01  0.18855975283E+00  0.14171609755E+04  0.14172042100E+04  0.10000000000E+02 0.  0.
</event>
<event>
 5    1  0.1360042E-008  0.3701645E+03  0.7957747E-01  0.3495135E+00
         13   -1    0    0    0    0  0.00000000000E+00  0.00000000000E+00  0.14999999963E+04  0.15000000000E+04  0.10566000000E+00 0. -1.
        994   -1    0    0    0    0 -0.00000000000E+00 -0.00000000000E+00  0.11368683772E-12  0.17120000000E+03  0.17120000000E+03 0.  0.
         13    1    1    2    0    0 -0.63269324297E+02  0.69897880093E+01  0.23137489707E+03  0.23997128722E+03  0.10566000000E+00 0. -1.
        994    1    1    2    0    0  0.25861519769E+02 -0.72323571196E+01  0.11679094290E+02  0.17368640257E+03  0.17120000000E+03 0.  0.
        998    1    1    2    0    0  0.37407804528E+02  0.24256911029E+00  0.12569460049E+04  0.12575423102E+04  0.10000000000E+02 0. -1.
</event>
<event>
 5    1  0.1360042E-008  0.3854781E+03  0.7957747E-01  0.3427647E+00
         13   -1    0    0    0    0  0.00000000000E+00  0.00000000000E+00  0.14999999963E+04  0.15000000000E+04  0.10566000000E+00 0.  1.
        994   -1    0    0    0    0 -0.00000000000E+00 -0.00000000000E+00  0.11368683772E-12  0.17120000000E+03  0.17120000000E+03 0.  0.
         13    1    1    2    0    0 -0.10177519625E+02  0.26137061169E+01  0.38990367365E+02  0.40381595767E+02  0.10566000000E+00 0.  1.
        994    1    1    2    0    0  0.73327395419E+01 -0.14827083352E+02  0.22919141437E+01  0.17201251216E+03  0.17120000000E+03 0.  0.
        998    1    1    2    0    0  0.28447800833E+01  0.12213377235E+02  0.14587177148E+04  0.14588058921E+04  0.10000000000E+02 0.  1.
</event>
<event>
 5    1  0.1360042E-008  0.3740426E+03  0.7957747E-01  0.3477516E+00
         13   -1    0    0    0    0  0.00000000000E+00  0.00000000000E+00  0.14999999963E+04  0.15000000000E+04  0.10566000000E+00 0. -1.
        994   -1    0    0    0    0 -0.00000000000E+00 -0.00000000000E+00  0.11368683772E-12  0.17120000000E+03  0.17120000000E+03 0.  0.
         13    1    1    2    0    0 -0.41594016879E+02 -0.32610516540E+02  0.19446702743E+03  0.20152157192E+03  0.10566000000E+00 0. -1.
        994    1    1    2    0    0  0.12161962429E+02  0.31839574028E+02  0.11143021706E+02  0.17491506149E+03  0.17120000000E+03 0.  0.
        998    1    1    2    0    0  0.29432054449E+02  0.77094251133E+00  0.12943899471E+04  0.12947633666E+04  0.10000000000E+02 0.  1.
</event>
<event>
 5    1  0.1360042E-008  0.3854507E+03  0.7957747E-01  0.3427763E+00
         13   -1    0    0    0    0  0.00000000000E+00  0.00000000000E+00  0.14999999963E+04  0.15000000000E+04  0.10566000000E+00 0. -1.
        994   -1    0    0    0    0 -0.00000000000E+00 -0.00000000000E+00  0.11368683772E-12  0.17120000000E+03  0.17120000000E+03 0.  0.
         13    1    1    2    0    0  0.96865378120E+01 -0.98968731254E+01  0.75909287449E+02  0.77162220014E+02  0.10566000000E+00 0. -1.
        994    1    1    2    0    0 -0.57157394932E+01 -0.11731906216E+02  0.19660178827E+01  0.17170792797E+03  0.17120000000E+03 0.  0.
        998    1    1    2    0    0 -0.39707983187E+01  0.21628779341E+02  0.14221246909E+04  0.14223298520E+04  0.10000000000E+02 0. -1.
</event>
<event>
 5    1  0.1360042E-008  0.3811186E+03  0.7957747E-01  0.3446302E+00
         13   -1    0    0    0    0  0.00000000000E+00  0.00000000000E+00  0.14999999963E+04  0.15000000000E+04  0.10566000000E+00 0.  1.
        994   -1    0    0    0    0 -0.00000000000E+00 -0.00000000000E+00  0.11368683772E-12  0.17120000000E+03  0.17120000000E+03 0.  0.
         13    1    1    2    0    0  0.18388531933E+01  0.10976138029E+02  0.15626758952E+02  0.19184987529E+02  0.10566000000E+00 0.  1.
        994    1    1    2    0    0 -0.13351025594E+01 -0.13380718689E+02  0.41720149606E+01  0.17177797251E+03  0.17120000000E+03 0.  0.
        998    1    1    2    0    0 -0.50375063384E+00  0.24045806598E+01  0.14802012224E+04  0.14802370400E+04  0.10000000000E+02 0.  1.
</event>
<event>
 5    1  0.1360042E-008  0.3775285E+03  0.7957747E-01  0.3461991E+00
         13   -1    0    0    0    0  0.00000000000E+00  0.00000000000E+00  0.14999999963E+04  0.15000000000E+04  0.10566000000E+00 0.  1.
        994   -1    0    0    0    0 -0.00000000000E+00 -0.00000000000E+00  0.11368683772E-12  0.17120000000E+03  0.17120000000E+03 0.  0.
         13    1    1    2    0    0 -0.13864998933E+02  0.59209509544E+01  0.19689760250E+02  0.24799066079E+02  0.10566000000E+00 0.  1.
        994    1    1    2    0    0 -0.17336680191E+01  0.16531185678E+02  0.63177327332E+01  0.17212100235E+03  0.17120000000E+03 0.  0.
        998    1    1    2    0    0  0.15598666952E+02 -0.22452136632E+02  0.14739925033E+04  0.14742799316E+04  0.10000000000E+02 0.  1.
</event>
<event>
 5    1  0.1360042E-008  0.3719011E+03  0.7957747E-01  0.3487199E+00
         13   -1    0    0    0    0  0.00000000000E+00  0.00000000000E+00  0.14999999963E+04  0.15000000000E+04  0.10566000000E+00 0.  1.
        994   -1    0    0    0    0 -0.00000000000E+00 -0.00000000000E+00  0.11368683772E-12  0.17120000000E+03  0.17120000000E+03 0.  0.
         13    1    1    2    0    0 -0.10629436979E+03 -0.65948198551E+01  0.50314297532E+03  0.51429062744E+03  0.10566000000E+00 0.  1.
        994    1    1    2    0    0  0.96603367330E+02 -0.17142159681E+02  0.42107856964E+02  0.20176366332E+03  0.17120000000E+03 0.  0.
        998    1    1    2    0    0  0.96910024574E+01  0.23736979536E+02  0.95474916399E+03  0.95514570924E+03  0.10000000000E+02 0.  1.
</event>
<event>
 5    1  0.1360042E-008  0.3765974E+03  0.7957747E-01  0.3466109E+00
         13   -1    0    0    0    0  0.00000000000E+00  0.00000000000E+00  0.14999999963E+04  0.15000000000E+04  0.10566000000E+00 0.  1.
        994   -1    0    0    0    0 -0.00000000000E+00 -0.00000000000E+00  0.11368683772E-12  0.17120000000E+03  0.17120000000E+03 0.  0.
         13    1    1    2    0    0 -0.34345340870E+02  0.50741991309E+02  0.24032590066E+03  0.24801391456E+03  0.10566000000E+00 0.  1.
        994    1    1    2    0    0  0.45519970548E+02 -0.61813212047E+02  0.26051841941E+02  0.18942301700E+03  0.17120000000E+03 0.  0.
        998    1    1    2    0    0 -0.11174629678E+02  0.11071220738E+02  0.12336222537E+04  0.12337630684E+04  0.10000000000E+02 0.  1.
</event>
<event>
 5    1  0.1360042E-008  0.3694989E+03  0.7957747E-01  0.3498197E+00
         13   -1    0    0    0    0  0.00000000000E+00  0.00000000000E+00  0.14999999963E+04  0.15000000000E+04  0.10566000000E+00 0.  1.
        994   -1    0    0    0    0 -0.00000000000E+00 -0.00000000000E+00  0.11368683772E-12  0.17120000000E+03  0.17120000000E+03 0.  0.
         13    1    1    2    0    0  0.16625476095E+02 -0.49867806562E+02  0.15471525487E+03  0.16340142545E+03  0.10566000000E+00 0.  1.
        994    1    1    2    0    0 -0.41202923668E+02  0.38569664788E+00  0.15434919747E+02  0.17676398510E+03  0.17120000000E+03 0.  0.
        998    1    1    2    0    0  0.24577447573E+02  0.49482109914E+02  0.13298498217E+04  0.13310345894E+04  0.10000000000E+02 0.  1.
</event>
<event>
 5    1  0.1360042E-008  0.3691951E+03  0.7957747E-01  0.3499598E+00
         13   -1    0    0    0    0  0.00000000000E+00  0.00000000000E+00  0.14999999963E+04  0.15000000000E+04  0.10566000000E+00 0. -1.
        994   -1    0    0    0    0 -0.00000000000E+00 -0.00000000000E+00  0.11368683772E-12  0.17120000000E+03  0.17120000000E+03 0.  0.
         13    1    1    2    0    0  0.43367429135E+01  0.94326232901E+01  0.10198401869E+01  0.10432303642E+02  0.10566000000E+00 0. -1.
        994    1    1    2    0    0  0.15243327360E+01 -0.10733657855E+02  0.10098028344E+02  0.17183988238E+03  0.17120000000E+03 0.  0.
        998    1    1    2    0    0 -0.58610756496E+01  0.13010345646E+01  0.14888821277E+04  0.14889278140E+04  0.10000000000E+02 0. -1.
</event>
<event>
 5    1  0.1360042E-008  0.3820098E+03  0.7957747E-01  0.3442454E+00
         13   -1    0    0    0    0  0.00000000000E+00  0.00000000000E+00  0.14999999963E+04  0.15000000000E+04  0.10566000000E+00 0. -1.
        994   -1    0    0    0    0 -0.00000000000E+00 -0.00000000000E+00  0.11368683772E-12  0.17120000000E+03  0.17120000000E+03 0.  0.
         13    1    1    2    0    0  0.15533915264E+02  0.30282907518E+01  0.38616513188E+02  0.41733910949E+02  0.10566000000E+00 0. -1.
        994    1    1    2    0    0 -0.13050852290E+02 -0.26195248302E+01  0.37106591693E+01  0.17175679214E+03  0.17120000000E+03 0.  0.
        998    1    1    2    0    0 -0.24830629744E+01 -0.40876592151E+00  0.14576728239E+04  0.14577092969E+04  0.10000000000E+02 0. -1.
</event>
<event>
 5    1  0.1360042E-008  0.3849432E+03  0.7957747E-01  0.3429913E+00
         13   -1    0    0    0    0  0.00000000000E+00  0.00000000000E+00  0.14999999963E+04  0.15000000000E+04  0.10566000000E+00 0.  1.
        994   -1    0    0    0    0 -0.00000000000E+00 -0.00000000000E+00  0.11368683772E-12  0.17120000000E+03  0.17120000000E+03 0.  0.
         13    1    1    2    0    0  0.14596604211E+01  0.10003660234E+02  0.33166479878E+02  0.34673193942E+02  0.10566000000E+00 0.  1.
        994    1    1    2    0    0  0.10292093989E+02  0.92928329599E+01  0.22910460566E+01  0.17177593788E+03  0.17120000000E+03 0.  0.
        998    1    1    2    0    0 -0.11751754410E+02 -0.19296493194E+02  0.14645424703E+04  0.14647508682E+04  0.10000000000E+02 0.  1.
</event>
<event>
 5    1  0.1360042E-008  0.3696288E+03  0.7957747E-01  0.3497599E+00
         13   -1    0    0    0    0  0.00000000000E+00  0.00000000000E+00  0.14999999963E+04  0.15000000000E+04  0.10566000000E+00 0. -1.
        994   -1    0    0    0    0 -0.00000000000E+00 -0.00000000000E+00  0.11368683772E-12  0.17120000000E+03  0.17120000000E+03 0.  0.
         13    1    1    2    0    0  0.19681037812E+02  0.59826665311E+02  0.16015993273E+03  0.17209819391E+03  0.10566000000E+00 0. -1.
        994    1    1    2    0    0 -0.17004252515E+02 -0.63880241232E+02  0.26159483584E+02  0.18537418484E+03  0.17120000000E+03 0.  0.
        998    1    1    2    0    0 -0.26767852971E+01  0.40535759209E+01  0.13136805800E+04  0.13137276212E+04  0.10000000000E+02 0. -1.
</event>
<event>
 5    1  0.1360042E-008  0.3832851E+03  0.7957747E-01  0.3436978E+00
         13   -1    0    0    0    0  0.00000000000E+00  0.00000000000E+00  0.14999999963E+04  0.15000000000E+04  0.10566000000E+00 0.  1.
        994   -1    0    0    0    0 -0.00000000000E+00 -0.00000000000E+00  0.11368683772E-12  0.17120000000E+03  0.17120000000E+03 0.  0.
         13    1    1    2    0    0  0.21672041032E+02  0.17575024416E+02  0.14909867466E+03  0.15168712798E+03  0.10566000000E+00 0.  1.
        994    1    1    2    0    0 -0.18216182987E+02 -0.13163443765E+02  0.41561366778E+01  0.17271890182E+03  0.17120000000E+03 0.  0.
        998    1    1    2    0    0 -0.34558580445E+01 -0.44115806505E+01  0.13467451849E+04  0.13467939702E+04  0.10000000000E+02 0. -1.
</event>
<event>
 5    1  0.1360042E-008  0.3847734E+03  0.7957747E-01  0.3430634E+00
         13   -1    0    0    0    0  0.00000000000E+00  0.00000000000E+00  0.14999999963E+04  0.15000000000E+04  0.10566000000E+00 0.  1.
        994   -1    0    0    0    0 -0.00000000000E+00 -0.00000000000E+00  0.11368683772E-12  0.17120000000E+03  0.17120000000E+03 0.  0.
         13    1    1    2    0    0 -0.18282017457E+02 -0.61880040412E+01  0.97176424432E+02  0.99074679842E+02  0.10566000000E+00 0.  1.
        994    1    1    2    0    0  0.29228223447E+02 -0.69693330166E+01  0.47196940937E+01  0.17388092524E+03  0.17120000000E+03 0.  0.
        998    1    1    2    0    0 -0.10946205991E+02  0.13157337058E+02  0.13981038778E+04  0.13982443949E+04  0.10000000000E+02 0.  1.
</event>
<event>
 5    1  0.1360042E-008  0.3737762E+03  0.7957747E-01  0.3478714E+00
         13   -1    0    0    0    0  0.00000000000E+00  0.00000000000E+00  0.14999999963E+04  0.15000000000E+04  0.10566000000E+00 0. -1.
        994   -1    0    0    0    0 -0.00000000000E+00 -0.00000000000E+00  0.11368683772E-12  0.17120000000E+03  0.17120000000E+03 0.  0.
         13    1    1    2    0    0  0.58363347785E+02  0.17501201002E+02  0.26888418621E+03  0.27570144932E+03  0.10566000000E+00 0. -1.
        994    1    1    2    0    0 -0.40287666406E+02  0.36461600918E+02  0.17454232941E+02  0.18046228042E+03  0.17120000000E+03 0.  0.
        998    1    1    2    0    0 -0.18075681379E+02 -0.53962801920E+02  0.12136615771E+04  0.12150362703E+04  0.10000000000E+02 0. -1.
</event>
<event>
 5    1  0.1360042E-008  0.3711952E+03  0.7957747E-01  0.3490416E+00
         13   -1    0    0    0    0  0.00000000000E+00  0.00000000000E+00  0.14999999963E+04  0.15000000000E+04  0.10566000000E+00 0.  1.
        994   -1    0    0    0    0 -0.00000000000E+00 -0.00000000000E+00  0.11368683772E-12  0.17120000000E+03  0.17120000000E+03 0.  0.
         13    1    1    2    0    0 -0.93033398429E+01  0.28479933118E+02  0.47506014402E+02  0.56164858151E+02  0.10566000000E+00 0.  1.
        994    1    1    2    0    0  0.13714213216E+02 -0.24483258180E+02  0.11362232341E+02  0.17385640598E+03  0.17120000000E+03 0.  0.
        998    1    1    2    0    0 -0.44108733735E+01 -0.39966749376E+01  0.14411317495E+04  0.14411787359E+04  0.10000000000E+02 0.  1.
</event>
<event>
 5    1  0.1360042E-008  0.3818104E+03  0.7957747E-01  0.3443313E+00
         13   -1    0    0    0    0  0.00000000000E+00  0.00000000000E+00  0.14999999963E+04  0.15000000000E+04  0.10566000000E+00 0. -1.
        994   -1    0    0    0    0 -0.00000000000E+00 -0.00000000000E+00  0.11368683772E-12  0.17120000000E+03  0.17120000000E+03 0.  0.
         13    1    1    2    0    0 -0.20842703850E+02  0.13652001496E+02  0.92140981165E+02  0.95450337992E+02  0.10566000000E+00 0. -1.
        994    1    1    2    0    0  0.19675658358E+02 -0.92052993161E+01  0.47916497431E+01  0.17263912933E+03  0.17120000000E+03 0.  0.
        998    1    1    2    0    0  0.11670454919E+01 -0.44467021801E+01  0.14030673654E+04  0.14031105327E+04  0.10000000000E+02 0. -1.
</event>
<event>
 5    1  0.1360042E-008  0.3762844E+03  0.7957747E-01  0.3467498E+00
         13   -1    0    0    0    0  0.00000000000E+00  0.00000000000E+00  0.14999999963E+04  0.15000000000E+04  0.10566000000E+00 0.  1.
        994   -1    0    0    0    0 -0.00000000000E+00 -0.00000000000E+00  0.11368683772E-12  0.17120000000E+03  0.17120000000E+03 0.  0.
         13    1    1    2    0    0 -0.30625338229E+02  0.32466987714E+02  0.14877052578E+03  0.15532127072E+03  0.10566000000E+00 0.  1.
        994    1    1    2    0    0  0.35419386757E+02 -0.27098135515E+02  0.12781789015E+02  0.17737433872E+03  0.17120000000E+03 0.  0.
        998    1    1    2    0    0 -0.47940485281E+01 -0.53688521989E+01  0.13384476815E+04  0.13385043906E+04  0.10000000000E+02 0.  1.
</event>
<event>
 5    1  0.1360042E-008  0.3858834E+03  0.7957747E-01  0.3425934E+00
         13   -1    0    0    0    0  0.00000000000E+00  0.00000000000E+00  0.14999999963E+04  0.15000000000E+04  0.10566000000E+00 0. -1.
        994   -1    0    0    0    0 -0.00000000000E+00 -0.00000000000E+00  0.11368683772E-12  0.17120000000E+03  0.17120000000E+03 0.  0.
         13    1    1    2    0    0 -0.69397904838E+01  0.10542878378E+02  0.64277995957E+02  0.65505609719E+02  0.10566000000E+00 0. -1.
        994    1    1    2    0    0  0.10577917300E+02 -0.11122447291E+02  0.19651595025E+01  0.17189794362E+03  0.17120000000E+03 0.  0.
        998    1    1    2    0    0 -0.36381268161E+01  0.57956891305E+00  0.14337568408E+04  0.14337964467E+04  0.10000000000E+02 0. -1.
</event>
<event>
 5    1  0.1360042E-008  0.3827676E+03  0.7957747E-01  0.3439196E+00
         13   -1    0    0    0    0  0.00000000000E+00  0.00000000000E+00  0.14999999963E+04  0.15000000000E+04  0.10566000000E+00 0. -1.
        994   -1    0    0    0    0 -0.00000000000E+00 -0.00000000000E+00  0.11368683772E-12  0.17120000000E+03  0.17120000000E+03 0.  0.
         13    1    1    2    0    0  0.94220309162E+01  0.80432361649E+01  0.27815638871E+02  0.30449782338E+02  0.10566000000E+00 0. -1.
        994    1    1    2    0    0 -0.19376889952E+01  0.23101498030E+01  0.27726972817E+01  0.17124899790E+03  0.17120000000E+03 0.  0.
        998    1    1    2    0    0 -0.74843419210E+01 -0.10353385968E+02  0.14694116601E+04  0.14695012198E+04  0.10000000000E+02 0. -1.
</event>
<event>
 5    1  0.1360042E-008  0.3765619E+03  0.7957747E-01  0.3466267E+00
         13   -1    0    0    0    0  0.00000000000E+00  0.00000000000E+00  0.14999999963E+04  0.15000000000E+04  0.10566000000E+00 0. -1.
        994   -1    0    0    0    0 -0.00000000000E+00 -0.00000000000E+00  0.11368683772E-12  0.17120000000E+03  0.17120000000E+03 0.  0.
         13    1    1    2    0    0 -0.14275472988E+03  0.12996253259E+03  0.10739527478E+04  0.10911662057E+04  0.10566000000E+00 0. -1.
        994    1    1    2    0    0  0.13195222455E+03 -0.12017713981E+03  0.12252909383E+03  0.27600136473E+03  0.17120000000E+03 0.  0.
        998    1    1    2    0    0  0.10802505329E+02 -0.97853927842E+01  0.30351815462E+03  0.30403242955E+03  0.10000000000E+02 0.  1.
</event>
<event>
 5    1  0.1360042E-008  0.3711630E+03  0.7957747E-01  0.3490563E+00
         13   -1    0    0    0    0  0.00000000000E+00  0.00000000000E+00  0.14999999963E+04  0.15000000000E+04  0.10566000000E+00 0. -1.
        994   -1    0    0    0    0 -0.00000000000E+00 -0.00000000000E+00  0.11368683772E-12  0.17120000000E+03  0.17120000000E+03 0.  0.
         13    1    1    2    0    0 -0.26293863633E+02  0.21269709319E+02  0.57674206909E+02  0.66858754893E+02  0.10566000000E+00 0. -1.
        994    1    1    2    0    0  0.46402158214E+02 -0.20829791102E+02  0.17625029421E+02  0.17946342844E+03  0.17120000000E+03 0.  0.
        998    1    1    2    0    0 -0.20108294581E+02 -0.43991821680E+00  0.14247007599E+04  0.14248778167E+04  0.10000000000E+02 0. -1.
</event>
<event>
 5    1  0.1360042E-008  0.3818929E+03  0.7957747E-01  0.3442958E+00
         13   -1    0    0    0    0  0.00000000000E+00  0.00000000000E+00  0.14999999963E+04  0.15000000000E+04  0.10566000000E+00 0.  1.
        994   -1    0    0    0    0 -0.00000000000E+00 -0.00000000000E+00  0.11368683772E-12  0.17120000000E+03  0.17120000000E+03 0.  0.
         13    1    1    2    0    0 -0.19143715119E+02  0.28804717330E+02  0.18954445752E+03  0.19267409299E+03  0.10566000000E+00 0.  1.
        994    1    1    2    0    0  0.45125545344E+01 -0.19276764032E+02  0.44838746228E+01  0.17239925148E+03  0.17120000000E+03 0.  0.
        998    1    1    2    0    0  0.14631160584E+02 -0.95279532986E+01  0.13059716641E+04  0.13061266555E+04  0.10000000000E+02 0.  1.
</event>
<event>
 5    1  0.1360042E-008  0.3797990E+03  0.7957747E-01  0.3452034E+00
         13   -1    0    0    0    0  0.00000000000E+00  0.00000000000E+00  0.14999999963E+04  0.15000000000E+04  0.10566000000E+00 0.  1.
        994   -1    0    0    0    0 -0.00000000000E+00 -0.00000000000E+00  0.11368683772E-12  0.17120000000E+03  0.17120000000E+03 0.  0.
         13    1    1    2    0    0  0.22990837005E+02 -0.17559448518E+02  0.90440929016E+02  0.94955176919E+02  0.10566000000E+00 0.  1.
        994    1    1    2    0    0 -0.28038772758E+02  0.17622521325E+02  0.79120553595E+01  0.17455304826E+03  0.17120000000E+03 0.  0.
        998    1    1    2    0    0  0.50479357526E+01 -0.63072807049E-01  0.14016470119E+04  0.14016917748E+04  0.10000000000E+02 0.  1.
</event>
<event>
 5    1  0.1360042E-008  0.3790887E+03  0.7957747E-01  0.3455136E+00
         13   -1    0    0    0    0  0.00000000000E+00  0.00000000000E+00  0.14999999963E+04  0.15000000000E+04  0.10566000000E+00 0. -1.
        994   -1    0    0    0    0 -0.00000000000E+00 -0.00000000000E+00  0.11368683772E-12  0.17120000000E+03  0.17120000000E+03 0.  0.
         13    1    1    2    0    0  0.31092121459E+02  0.49429359108E+01  0.13047088450E+03  0.13421555610E+03  0.10566000000E+00 0. -1.
        994    1    1    2    0    0  0.15064907679E+02  0.10163587967E+02  0.57019711139E+01  0.17225621161E+03  0.17120000000E+03 0.  0.
        998    1    1    2    0    0 -0.46157029138E+02 -0.15106523878E+02  0.13638271407E+04  0.13647282323E+04  0.10000000000E+02 0. -1.
</event>
<event>
 5    1  0.1360042E-008  0.3832732E+03  0.7957747E-01  0.3437029E+00
         13   -1    0    0    0    0  0.00000000000E+00  0.00000000000E+00  0.14999999963E+04  0.15000000000E+04  0.10566000000E+00 0. -1.
        994   -1    0    0    0    0 -0.00000000000E+00 -0.00000000000E+00  0.11368683772E-12  0.17120000000E+03  0.17120000000E+03 0.  0.
         13    1    1    2    0    0  0.82284336643E+01 -0.24509371706E+02  0.14820986566E+03  0.15044797063E+03  0.10566000000E+00 0. -1.
        994    1    1    2    0    0  0.19817983790E+01  0.35047058818E+01  0.25434922057E+01  0.17126622504E+03  0.17120000000E+03 0.  0.
        998    1    1    2    0    0 -0.10210232043E+02  0.21004665824E+02  0.13492466384E+04  0.13494858043E+04  0.10000000000E+02 0. -1.
</event>
<event>
 5    1  0.1360042E-008  0.3828569E+03  0.7957747E-01  0.3438812E+00
         13   -1    0    0    0    0  0.00000000000E+00  0.00000000000E+00  0.14999999963E+04  0.15000000000E+04  0.10566000000E+00 0.  1.
        994   -1    0    0    0    0 -0.00000000000E+00 -0.00000000000E+00  0.11368683772E-12  0.17120000000E+03  0.17120000000E+03 0.  0.
         13    1    1    2    0    0  0.68843123807E+01 -0.26028803231E+02  0.11737234131E+03  0.12042080395E+03  0.10566000000E+00 0.  1.
        994    1    1    2    0    0  0.24831561465E+01  0.37923709870E+02  0.74959496444E+01  0.17552778440E+03  0.17120000000E+03 0.  0.
        998    1    1    2    0    0 -0.93674685272E+01 -0.11894906639E+02  0.13751317053E+04  0.13752514117E+04  0.10000000000E+02 0.  1.
</event>
<event>
 5    1  0.1360042E-008  0.3790013E+03  0.7957747E-01  0.3455519E+00
         13   -1    0    0    0    0  0.00000000000E+00  0.00000000000E+00  0.14999999963E+04  0.15000000000E+04  0.10566000000E+00 0.  1.
        994   -1    0    0    0    0 -0.00000000000E+00 -0.00000000000E+00  0.11368683772E-12  0.17120000000E+03  0.17120000000E+03 0.  0.
         13    1    1    2    0    0 -0.12832211049E+03  0.10593681078E+03  0.91978251134E+03  0.93471335245E+03  0.10566000000E+00 0.  1.
        994    1    1    2    0    0  0.13353848103E+03 -0.10333735835E+03  0.10710709393E+03  0.26323469588E+03  0.17120000000E+03 0.  0.
        998    1    1    2    0    0 -0.52163705390E+01 -0.25994524310E+01  0.47311039101E+03  0.47325195167E+03  0.10000000000E+02 0.  1.
</event>
<event>
 5    1  0.1360042E-008  0.3801818E+03  0.7957747E-01  0.3450367E+00
         13   -1    0    0    0    0  0.00000000000E+00  0.00000000000E+00  0.14999999963E+04  0.15000000000E+04  0.10566000000E+00 0.  1.
        994   -1    0    0    0    0 -0.00000000000E+00 -0.00000000000E+00  0.11368683772E-12  0.17120000000E+03  0.17120000000E+03 0.  0.
         13    1    1    2    0    0  0.28811986428E+02 -0.18378669487E+02  0.16633546612E+03  0.16980990698E+03  0.10566000000E+00 0.  1.
        994    1    1    2    0    0  0.15861001159E+01 -0.58698225670E+00  0.40509609565E+01  0.17125627155E+03  0.17120000000E+03 0.  0.
        998    1    1    2    0    0 -0.30398086544E+02  0.18965651743E+02  0.13296135692E+04  0.13301338215E+04  0.10000000000E+02 0.  1.
</event>
<event>
 5    1  0.1360042E-008  0.3822209E+03  0.7957747E-01  0.3441545E+00
         13   -1    0    0    0    0  0.00000000000E+00  0.00000000000E+00  0.14999999963E+04  0.15000000000E+04  0.10566000000E+00 0.  1.
        994   -1    0    0    0    0 -0.00000000000E+00 -0.00000000000E+00  0.11368683772E-12  0.17120000000E+03  0.17120000000E+03 0.  0.
         13    1    1    2    0    0  0.11294746465E+02  0.16399291889E+01  0.21410628610E+02  0.24262869718E+02  0.10566000000E+00 0.  1.
        994    1    1    2    0    0  0.11425190761E+02 -0.24674696826E+02  0.54737713240E+01  0.17343234364E+03  0.17120000000E+03 0.  0.
        998    1    1    2    0    0 -0.22719937226E+02  0.23034767637E+02  0.14731155963E+04  0.14735047866E+04  0.10000000000E+02 0.  1.
</event>
<event>
 5    1  0.1360042E-008  0.3857787E+03  0.7957747E-01  0.3426376E+00
         13   -1    0    0    0    0  0.00000000000E+00  0.00000000000E+00  0.14999999963E+04  0.15000000000E+04  0.10566000000E+00 0.  1.
        994   -1    0    0    0    0 -0.00000000000E+00 -0.00000000000E+00  0.11368683772E-12  0.17120000000E+03  0.17120000000E+03 0.  0.
         13    1    1    2    0    0 -0.10297482787E+02  0.44314445726E+01  0.54055193927E+02  0.55205534209E+02  0.10566000000E+00 0.  1.
        994    1    1    2    0    0  0.86289801392E+00  0.55066184498E+01  0.13459355661E+01  0.17129599815E+03  0.17120000000E+03 0.  0.
        998    1    1    2    0    0  0.94345847729E+01 -0.99380630223E+01  0.14445988668E+04  0.14446984676E+04  0.10000000000E+02 0.  1.
</event>
<event>
 5    1  0.1528809E-008  0.3860787E+03  0.7957747E-01  0.3425110E+00
         13   -1    0    0    0    0  0.00000000000E+00  0.00000000000E+00  0.14999999963E+04  0.15000000000E+04  0.10566000000E+00 0. -1.
        994   -1    0    0    0    0 -0.00000000000E+00 -0.00000000000E+00  0.11368683772E-12  0.17120000000E+03  0.17120000000E+03 0.  0.
         13    1    1    2    0    0  0.10757777654E+02 -0.51554475183E+00  0.51652850559E+02  0.52763848432E+02  0.10566000000E+00 0. -1.
        994    1    1    2    0    0 -0.12822797313E+02 -0.30331485801E+00  0.16348512552E+01  0.17168759090E+03  0.17120000000E+03 0.  0.
        998    1    1    2    0    0  0.20650196594E+01  0.81885960984E+00  0.14467122945E+04  0.14467485607E+04  0.10000000000E+02 0. -1.
</event>
<event>
 5    1  0.1360042E-008  0.3759487E+03  0.7957747E-01  0.3468991E+00
         13   -1    0    0    0    0  0.00000000000E+00  0.00000000000E+00  0.14999999963E+04  0.15000000000E+04  0.10566000000E+00 0.  1.
        994   -1    0    0    0    0 -0.00000000000E+00 -0.00000000000E+00  0.11368683772E-12  0.17120000000E+03  0.17120000000E+03 0.  0.
         13    1    1    2    0    0 -0.22145473610E+01  0.30778776076E+02  0.77427535043E+02  0.83350294683E+02  0.10566000000E+00 0.  1.
        994    1    1    2    0    0  0.15748693651E+02 -0.87979582317E+01  0.72957982864E+01  0.17230233340E+03  0.17120000000E+03 0.  0.
        998    1    1    2    0    0 -0.13534146290E+02 -0.21980817844E+02  0.14152766629E+04  0.14155473719E+04  0.10000000000E+02 0.  1.
</event>
<event>
 5    1  0.1360042E-008  0.3840382E+03  0.7957747E-01  0.3433762E+00
         13   -1    0    0    0    0  0.00000000000E+00  0.00000000000E+00  0.14999999963E+04  0.15000000000E+04  0.10566000000E+00 0.  1.
        994   -1    0    0    0    0 -0.00000000000E+00 -0.00000000000E+00  0.11368683772E-12  0.17120000000E+03  0.17120000000E+03 0.  0.
         13    1    1    2    0    0 -0.14013902334E+02  0.11897461224E+02  0.76867980430E+02  0.79035666769E+02  0.10566000000E+00 0.  1.
        994    1    1    2    0    0  0.10353878333E+02 -0.15403868949E+02  0.32456686568E+01  0.17223372591E+03  0.17120000000E+03 0.  0.
        998    1    1    2    0    0  0.36600240007E+01  0.35064077250E+01  0.14198863472E+04  0.14199306073E+04  0.10000000000E+02 0.  1.
</event>
<event>
 5    1  0.1360042E-008  0.3855499E+03  0.7957747E-01  0.3427343E+00
         13   -1    0    0    0    0  0.00000000000E+00  0.00000000000E+00  0.14999999963E+04  0.15000000000E+04  0.10566000000E+00 0.  1.
        994   -1    0    0    0    0 -0.00000000000E+00 -0.00000000000E+00  0.11368683772E-12  0.17120000000E+03  0.17120000000E+03 0.  0.
         13    1    1    2    0    0  0.95646322985E+01  0.46437679953E+01  0.41571390445E+02  0.42909654389E+02  0.10566000000E+00 0.  1.
        994    1    1    2    0    0 -0.74788300241E+01 -0.33714313127E+01  0.15783355920E+01  0.17140370647E+03  0.17120000000E+03 0.  0.
        998    1    1    2    0    0 -0.20858022744E+01 -0.12723366826E+01  0.14568502702E+04  0.14568866391E+04  0.10000000000E+02 0.  1.
</event>
<event>
 5    1  0.1360042E-008  0.3709102E+03  0.7957747E-01  0.3491718E+00
         13   -1    0    0    0    0  0.00000000000E+00  0.00000000000E+00  0.14999999963E+04  0.15000000000E+04  0.10566000000E+00 0. -1.
        994   -1    0    0    0    0 -0.00000000000E+00 -0.00000000000E+00  0.11368683772E-12  0.17120000000E+03  0.17120000000E+03 0.  0.
         13    1    1    2    0    0 -0.13536162736E+02 -0.23058321500E+02  0.37589705700E+02  0.46129286041E+02  0.10566000000E+00 0. -1.
        994    1    1    2    0    0  0.14460713184E+01  0.14877193208E+02  0.95645628796E+01  0.17211723581E+03  0.17120000000E+03 0.  0.
        998    1    1    2    0    0  0.12090091418E+02  0.81811282920E+01  0.14528457277E+04  0.14529534781E+04  0.10000000000E+02 0. -1.
</event>
<event>
 5    1  0.1360042E-008  0.3853831E+03  0.7957747E-01  0.3428049E+00
         13   -1    0    0    0    0  0.00000000000E+00  0.00000000000E+00  0.14999999963E+04  0.15000000000E+04  0.10566000000E+00 0. -1.
        994   -1    0    0    0    0 -0.00000000000E+00 -0.00000000000E+00  0.11368683772E-12  0.17120000000E+03  0.17120000000E+03 0.  0.
         13    1    1    2    0    0 -0.36219263309E+01 -0.13528305712E+02  0.70574133165E+02  0.71950349838E+02  0.10566000000E+00 0. -1.
        994    1    1    2    0    0  0.65542116479E+01  0.31691461394E+01  0.16141454515E+01  0.17136232562E+03  0.17120000000E+03 0.  0.
        998    1    1    2    0    0 -0.29322853170E+01  0.10359159573E+02  0.14278117177E+04  0.14278873245E+04  0.10000000000E+02 0. -1.
</event>
<event>
 5    1  0.1360042E-008  0.3793450E+03  0.7957747E-01  0.3454015E+00
         13   -1    0    0    0    0  0.00000000000E+00  0.00000000000E+00  0.14999999963E+04  0.15000000000E+04  0.10566000000E+00 0.  1.
        994   -1    0    0    0    0 -0.00000000000E+00 -0.00000000000E+00  0.11368683772E-12  0.17120000000E+03  0.17120000000E+03 0.  0.
         13    1    1    2    0    0 -0.77349491802E+02 -0.24499290600E+02  0.47587179099E+03  0.48273919641E+03  0.10566000000E+00 0.  1.
        994    1    1    2    0    0  0.82866148721E+02  0.20131650341E+02  0.29225483960E+02  0.19348294721E+03  0.17120000000E+03 0.  0.
        998    1    1    2    0    0 -0.55166569192E+01  0.43676402590E+01  0.99490272133E+03  0.99497785638E+03  0.10000000000E+02 0. -1.
</event>
<event>
 5    1  0.1360042E-008  0.3815877E+03  0.7957747E-01  0.3444274E+00
         13   -1    0    0    0    0  0.00000000000E+00  0.00000000000E+00  0.14999999963E+04  0.15000000000E+04  0.10566000000E+00 0. -1.
        994   -1    0    0    0    0 -0.00000000000E+00 -0.00000000000E+00  0.11368683772E-12  0.17120000000E+03  0.17120000000E+03 0.  0.
         13    1    1    2    0    0  0.10481804778E+03  0.13642836019E+03  0.10027587536E+04  0.10174107576E+04  0.10566000000E+00 0. -1.
        994    1    1    2    0    0 -0.98308640970E+02 -0.14928164205E+03  0.11809245817E+03  0.27423505651E+03  0.17120000000E+03 0.  0.
        998    1    1    2    0    0 -0.65094068077E+01  0.12853281861E+02  0.37914878452E+03  0.37955418590E+03  0.10000000000E+02 0. -1.
</event>
<event>
 5    1  0.1360042E-008  0.3837196E+03  0.7957747E-01  0.3435121E+00
         13   -1    0    0    0    0  0.00000000000E+00  0.00000000000E+00  0.14999999963E+04  0.15000000000E+04  0.10566000000E+00 0. -1.
        994   -1    0    0    0    0 -0.00000000000E+00 -0.00000000000E+00  0.11368683772E-12  0.17120000000E+03  0.17120000000E+03 0.  0.
         13    1    1    2    0    0 -0.12612063101E+02 -0.36200436091E+00  0.36199559246E+02  0.38335550556E+02  0.10566000000E+00 0. -1.
        994    1    1    2    0    0 -0.31745569133E+01 -0.33480693135E+00  0.23008363591E+01  0.17124521528E+03  0.17120000000E+03 0.  0.
        998    1    1    2    0    0  0.15786620014E+02  0.69681129226E+00  0.14614996007E+04  0.14616192342E+04  0.10000000000E+02 0. -1.
</event>
<event>
 5    1  0.1360042E-008  0.3714373E+03  0.7957747E-01  0.3489311E+00
         13   -1    0    0    0    0  0.00000000000E+00  0.00000000000E+00  0.14999999963E+04  0.15000000000E+04  0.10566000000E+00 0. -1.
        994   -1    0    0    0    0 -0.00000000000E+00 -0.00000000000E+00  0.11368683772E-12  0.17120000000E+03  0.17120000000E+03 0.  0.
         13    1    1    2    0    0  0.81062183878E+02 -0.55857153836E+02  0.50066880259E+03  0.51025519139E+03  0.10566000000E+00 0. -1.
        994    1    1    2    0    0 -0.39780556008E+02  0.69808942437E+02  0.31070249280E+02  0.19165224098E+03  0.17120000000E+03 0.  0.
        998    1    1    2    0    0 -0.41281627870E+02 -0.13951788601E+02  0.96826094441E+03  0.96929256763E+03  0.10000000000E+02 0. -1.
</event>
<event>
 5    1  0.1360042E-008  0.3805974E+03  0.7957747E-01  0.3448561E+00
         13   -1    0    0    0    0  0.00000000000E+00  0.00000000000E+00  0.14999999963E+04  0.15000000000E+04  0.10566000000E+00 0. -1.
        994   -1    0    0    0    0 -0.00000000000E+00 -0.00000000000E+00  0.11368683772E-12  0.17120000000E+03  0.17120000000E+03 0.  0.
         13    1    1    2    0    0  0.97266106290E+01 -0.11284259102E+02  0.27935401687E+02  0.31659742407E+02  0.10566000000E+00 0. -1.
        994    1    1    2    0    0 -0.64643598843E+01  0.27459469525E+00  0.39715479064E+01  0.17136824835E+03  0.17120000000E+03 0.  0.
        998    1    1    2    0    0 -0.32622507447E+01  0.11009664406E+02  0.14680930467E+04  0.14681720092E+04  0.10000000000E+02 0. -1.
</event>
<event>
 5    1  0.1378170E-008  0.3841812E+03  0.7957747E-01  0.3433152E+00
         13   -1    0    0    0    0  0.00000000000E+00  0.00000000000E+00  0.14999999963E+04  0.15000000000E+04  0.10566000000E+00 0.  1.
        994   -1    0    0    0    0 -0.00000000000E+00 -0.00000000000E+00  0.11368683772E-12  0.17120000000E+03  0.17120000000E+03 0.  0.
         13    1    1    2    0    0 -0.68032293971E+00  0.15739471538E+02  0.57312534159E+02  0.59438468515E+02  0.10566000000E+00 0.  1.
        994    1    1    2    0    0  0.81927867874E+00 -0.20611221340E+02  0.34414631883E+01  0.17247254080E+03  0.17120000000E+03 0.  0.
        998    1    1    2    0    0 -0.13895573903E+00  0.48717498020E+01  0.14392459989E+04  0.14392889907E+04  0.10000000000E+02 0.  1.
</event>
<event>
 5    1  0.1360042E-008  0.3510118E+03  0.7957747E-01  0.3587983E+00
         13   -1    0    0    0    0  0.00000000000E+00  0.00000000000E+00  0.14999999963E+04  0.15000000000E+04  0.10566000000E+00 0. -1.
        994   -1    0    0    0    0 -0.00000000000E+00 -0.00000000000E+00  0.11368683772E-12  0.17120000000E+03  0.17120000000E+03 0.  0.
         13    1    1    2    0    0  0.17901412286E+03 -0.77892249396E+02  0.10938236321E+04  0.11111090891E+04  0.10566000000E+00 0. -1.
        994    1    1    2    0    0 -0.15761990769E+03  0.44414351375E+02  0.11018781929E+03  0.26128043445E+03  0.17120000000E+03 0.  0.
        998    1    1    2    0    0 -0.21394215172E+02  0.33477898021E+02  0.29598854491E+03  0.29881047642E+03  0.10000000000E+02 0. -1.
</event>
<event>
 5    1  0.1360042E-008  0.3696144E+03  0.7957747E-01  0.3497665E+00
         13   -1    0    0    0    0  0.00000000000E+00  0.00000000000E+00  0.14999999963E+04  0.15000000000E+04  0.10566000000E+00 0.  1.
        994   -1    0    0    0    0 -0.00000000000E+00 -0.00000000000E+00  0.11368683772E-12  0.17120000000E+03  0.17120000000E+03 0.  0.
         13    1    1    2    0    0  0.11357661017E+02  0.57857967448E+02  0.21066827614E+03  0.21876397006E+03  0.10566000000E+00 0.  1.
        994    1    1    2    0    0 -0.23873967918E+01 -0.58350840705E+01  0.96083939142E+01  0.17158528230E+03  0.17120000000E+03 0.  0.
        998    1    1    2    0    0 -0.89702642249E+01 -0.52022883378E+02  0.12797233262E+04  0.12808507476E+04  0.10000000000E+02 0.  1.
</event>
<event>
 5    1  0.1360042E-008  0.3782959E+03  0.7957747E-01  0.3458612E+00
         13   -1    0    0    0    0  0.00000000000E+00  0.00000000000E+00  0.14999999963E+04  0.15000000000E+04  0.10566000000E+00 0.  1.
        994   -1    0    0    0    0 -0.00000000000E+00 -0.00000000000E+00  0.11368683772E-12  0.17120000000E+03  0.17120000000E+03 0.  0.
         13    1    1    2    0    0  0.77006848465E+02  0.22049188068E+02  0.18440087307E+03  0.20104704564E+03  0.10566000000E+00 0.  1.
        994    1    1    2    0    0 -0.65311808305E+02 -0.37843383502E+02  0.36209925225E+02  0.19057374600E+03  0.17120000000E+03 0.  0.
        998    1    1    2    0    0 -0.11695040159E+02  0.15794195434E+02  0.12793891980E+04  0.12795792084E+04  0.10000000000E+02 0.  1.
</event>
<event>
 5    1  0.1360042E-008  0.3839952E+03  0.7957747E-01  0.3433945E+00
         13   -1    0    0    0    0  0.00000000000E+00  0.00000000000E+00  0.14999999963E+04  0.15000000000E+04  0.10566000000E+00 0. -1.
        994   -1    0    0    0    0 -0.00000000000E+00 -0.00000000000E+00  0.11368683772E-12  0.17120000000E+03  0.17120000000E+03 0.  0.
         13    1    1    2    0    0 -0.42158250714E+01 -0.16253731957E+02  0.64117276997E+02  0.66279660206E+02  0.10566000000E+00 0. -1.
        994    1    1    2    0    0  0.11024021673E+02  0.13208981793E+02  0.31070699783E+01  0.17209038363E+03  0.17120000000E+03 0.  0.
        998    1    1    2    0    0 -0.68081966019E+01  0.30447501637E+01  0.14327756493E+04  0.14328299562E+04  0.10000000000E+02 0. -1.
</event>
<event>
 5    1  0.1360042E-008  0.3840288E+03  0.7957747E-01  0.3433802E+00
         13   -1    0    0    0    0  0.00000000000E+00  0.00000000000E+00  0.14999999963E+04  0.15000000000E+04  0.10566000000E+00 0. -1.
        994   -1    0    0    0    0 -0.00000000000E+00 -0.00000000000E+00  0.11368683772E-12  0.17120000000E+03  0.17120000000E+03 0.  0.
         13    1    1    2    0    0  0.32610540349E+01 -0.17915654497E+02  0.76383615442E+02  0.78524346680E+02  0.10566000000E+00 0. -1.
        994    1    1    2    0    0 -0.27611654743E+01  0.15023897331E+02  0.28832696295E+01  0.17190431865E+03  0.17120000000E+03 0.  0.
        998    1    1    2    0    0 -0.49988856052E+00  0.28917571667E+01  0.14207331112E+04  0.14207713347E+04  0.10000000000E+02 0. -1.
</event>
<event>
 5    1  0.1360042E-008  0.3857903E+03  0.7957747E-01  0.3426327E+00
         13   -1    0    0    0    0  0.00000000000E+00  0.00000000000E+00  0.14999999963E+04  0.15000000000E+04  0.10566000000E+00 0. -1.
        994   -1    0    0    0    0 -0.00000000000E+00 -0.00000000000E+00  0.11368683772E-12  0.17120000000E+03  0.17120000000E+03 0.  0.
         13    1    1    2    0    0  0.83666458390E+01 -0.64880357988E+01  0.45860597846E+02  0.47066983863E+02  0.10566000000E+00 0. -1.
        994    1    1    2    0    0 -0.27754307103E+01  0.67284239102E+01  0.14120430013E+01  0.17136046385E+03  0.17120000000E+03 0.  0.
        998    1    1    2    0    0 -0.55912151288E+01 -0.24038811146E+00  0.14527273554E+04  0.14527725523E+04  0.10000000000E+02 0. -1.
</event>
<event>
 5    1  0.1360042E-008  0.3730086E+03  0.7957747E-01  0.3482177E+00
         13   -1    0    0    0    0  0.00000000000E+00  0.00000000000E+00  0.14999999963E+04  0.15000000000E+04  0.10566000000E+00 0.  1.
        994   -1    0    0    0    0 -0.00000000000E+00 -0.00000000000E+00  0.11368683772E-12  0.17120000000E+03  0.17120000000E+03 0.  0.
         13    1    1    2    0    0  0.35661538163E+01 -0.25713062904E+02  0.39717183006E+02  0.47448338715E+02  0.10566000000E+00 0.  1.
        994    1    1    2    0    0 -0.13113965778E+01  0.25879259727E+02  0.10006197137E+02  0.17343880715E+03  0.17120000000E+03 0.  0.
        998    1    1    2    0    0 -0.22547572385E+01 -0.16619682352E+00  0.14502766161E+04  0.14503128541E+04  0.10000000000E+02 0.  1.
</event>
<event>
 5    1  0.1360042E-008  0.3791471E+03  0.7957747E-01  0.3454881E+00
         13   -1    0    0    0    0  0.00000000000E+00  0.00000000000E+00  0.14999999963E+04  0.15000000000E+04  0.10566000000E+00 0.  1.
        994   -1    0    0    0    0 -0.00000000000E+00 -0.00000000000E+00  0.11368683772E-12  0.17120000000E+03  0.17120000000E+03 0.  0.
         13    1    1    2    0    0 -0.17358634403E+02  0.21137538285E+02  0.78202949425E+02  0.82848235805E+02  0.10566000000E+00 0.  1.
        994    1    1    2    0    0  0.13947523989E+02 -0.18442356665E+02  0.63587006311E+01  0.17287141759E+03  0.17120000000E+03 0.  0.
        998    1    1    2    0    0  0.34111104135E+01 -0.26951816204E+01  0.14154383462E+04  0.14154803466E+04  0.10000000000E+02 0.  1.
</event>
<event>
 5    1  0.1360042E-008  0.3800729E+03  0.7957747E-01  0.3450841E+00
         13   -1    0    0    0    0  0.00000000000E+00  0.00000000000E+00  0.14999999963E+04  0.15000000000E+04  0.10566000000E+00 0.  1.
        994   -1    0    0    0    0 -0.00000000000E+00 -0.00000000000E+00  0.11368683772E-12  0.17120000000E+03  0.17120000000E+03 0.  0.
         13    1    1    2    0    0  0.22969265682E+02  0.99034260499E+01  0.77435414174E+02  0.81375177701E+02  0.10566000000E+00 0.  1.
        994    1    1    2    0    0 -0.19706234416E+02  0.23111531143E+02  0.71855304069E+01  0.17402169518E+03  0.17120000000E+03 0.  0.
        998    1    1    2    0    0 -0.32630312655E+01 -0.33014957193E+02  0.14153790517E+04  0.14158031271E+04  0.10000000000E+02 0.  1.
</event>
<event>
 5    1  0.1360042E-008  0.3699647E+03  0.7957747E-01  0.3496053E+00
         13   -1    0    0    0    0  0.00000000000E+00  0.00000000000E+00  0.14999999963E+04  0.15000000000E+04  0.10566000000E+00 0. -1.
        994   -1    0    0    0    0 -0.00000000000E+00 -0.00000000000E+00  0.11368683772E-12  0.17120000000E+03  0.17120000000E+03 0.  0.
         13    1    1    2    0    0  0.15534125258E+02  0.85294187114E+02  0.28693223812E+03  0.29974410393E+03  0.10566000000E+00 0. -1.
        994    1    1    2    0    0 -0.20294829380E+02 -0.77236728064E+02  0.33558540622E+02  0.19186716215E+03  0.17120000000E+03 0.  0.
        998    1    1    2    0    0  0.47607041218E+01 -0.80574590507E+01  0.11795092175E+04  0.11795887339E+04  0.10000000000E+02 0. -1.
</event>
<event>
 5    1  0.1360042E-008  0.3830024E+03  0.7957747E-01  0.3438189E+00
         13   -1    0    0    0    0  0.00000000000E+00  0.00000000000E+00  0.14999999963E+04  0.15000000000E+04  0.10566000000E+00 0. -1.
        994   -1    0    0    0    0 -0.00000000000E+00 -0.00000000000E+00  0.11368683772E-12  0.17120000000E+03  0.17120000000E+03 0.  0.
         13    1    1    2    0    0  0.14452615184E+02  0.13207830329E+02  0.75682510179E+02  0.78174026241E+02  0.10566000000E+00 0. -1.
        994    1    1    2    0    0 -0.12649057709E+01 -0.47258610599E+01  0.27043862371E+01  0.17129123578E+03  0.17120000000E+03 0.  0.
        998    1    1    2    0    0 -0.13187709413E+02 -0.84819692694E+01  0.14216130999E+04  0.14217347380E+04  0.10000000000E+02 0. -1.
</event>
<event>
 5    1  0.1360042E-008  0.3745403E+03  0.7957747E-01  0.3475281E+00
         13   -1    0    0    0    0  0.00000000000E+00  0.00000000000E+00  0.14999999963E+04  0.15000000000E+04  0.10566000000E+00 0.  1.
        994   -1    0    0    0    0 -0.00000000000E+00 -0.00000000000E+00  0.11368683772E-12  0.17120000000E+03  0.17120000000E+03 0.  0.
         13    1    1    2    0    0  0.41282082570E+02 -0.53083344070E+02  0.19836717174E+03  0.20945547916E+03  0.10566000000E+00 0.  1.
        994    1    1    2    0    0  0.84114567148E+01  0.76364648018E+01  0.13818668815E+02  0.17213211149E+03  0.17120000000E+03 0.  0.
        998    1    1    2    0    0 -0.49693539285E+02  0.45446879268E+02  0.12878141557E+04  0.12896124094E+04  0.10000000000E+02 0.  1.
</event>
<event>
 5    1  0.1360042E-008  0.3730367E+03  0.7957747E-01  0.3482050E+00
         13   -1    0    0    0    0  0.00000000000E+00  0.00000000000E+00  0.14999999963E+04  0.15000000000E+04  0.10566000000E+00 0. -1.
        994   -1    0    0    0    0 -0.00000000000E+00 -0.00000000000E+00  0.11368683772E-12  0.17120000000E+03  0.17120000000E+03 0.  0.
         13    1    1    2    0    0  0.90534811405E+01  0.50665299121E+02  0.16568760013E+03  0.17349734885E+03  0.10566000000E+00 0. -1.
        994    1    1    2    0    0  0.36688667313E+02  0.73497280078E+02  0.36798019714E+02  0.19342037830E+03  0.17120000000E+03 0.  0.
        998    1    1    2    0    0 -0.45742148453E+02 -0.12416257920E+03  0.12975143764E+04  0.13042822728E+04  0.10000000000E+02 0. -1.
</event>
<event>
 5    1  0.1360042E-008  0.3747284E+03  0.7957747E-01  0.3474438E+00
         13   -1    0    0    0    0  0.00000000000E+00  0.00000000000E+00  0.14999999963E+04  0.15000000000E+04  0.10566000000E+00 0.  1.
        994   -1    0    0    0    0 -0.00000000000E+00 -0.00000000000E+00  0.11368683772E-12  0.17120000000E+03  0.17120000000E+03 0.  0.
         13    1    1    2    0    0 -0.59049784785E+02  0.83948456453E+02  0.40102964649E+03  0.41395532241E+03  0.10566000000E+00 0.  1.
        994    1    1    2    0    0  0.81032098108E+02 -0.14863787649E+02  0.38000797207E+02  0.19375405466E+03  0.17120000000E+03 0.  0.
        998    1    1    2    0    0 -0.21982313323E+02 -0.69084668804E+02  0.10609695526E+04  0.10634906229E+04  0.10000000000E+02 0.  1.
</event>
<event>
 5    1  0.1360042E-008  0.3840034E+03  0.7957747E-01  0.3433910E+00
         13   -1    0    0    0    0  0.00000000000E+00  0.00000000000E+00  0.14999999963E+04  0.15000000000E+04  0.10566000000E+00 0.  1.
        994   -1    0    0    0    0 -0.00000000000E+00 -0.00000000000E+00  0.11368683772E-12  0.17120000000E+03  0.17120000000E+03 0.  0.
         13    1    1    2    0    0  0.20230666515E+02  0.51586791602E+01  0.10357183993E+03  0.10565523663E+03  0.10566000000E+00 0.  1.
        994    1    1    2    0    0 -0.10929388144E+02 -0.18832439227E+01  0.25316694674E+01  0.17157752616E+03  0.17120000000E+03 0.  0.
        998    1    1    2    0    0 -0.93012783707E+01 -0.32754352375E+01  0.13938964869E+04  0.13939672372E+04  0.10000000000E+02 0.  1.
</event>
<event>
 5    1  0.1360042E-008  0.3826446E+03  0.7957747E-01  0.3439724E+00
         13   -1    0    0    0    0  0.00000000000E+00  0.00000000000E+00  0.14999999963E+04  0.15000000000E+04  0.10566000000E+00 0. -1.
        994   -1    0    0    0    0 -0.00000000000E+00 -0.00000000000E+00  0.11368683772E-12  0.17120000000E+03  0.17120000000E+03 0.  0.
         13    1    1    2    0    0 -0.79829227153E+01 -0.86821109364E+01  0.23882502259E+02  0.26636275708E+02  0.10566000000E+00 0. -1.
        994    1    1    2    0    0  0.45040591447E+01  0.49827617431E+01  0.29536282726E+01  0.17135716613E+03  0.17120000000E+03 0.  0.
        998    1    1    2    0    0  0.34788635706E+01  0.36993491933E+01  0.14731638657E+04  0.14732065582E+04  0.10000000000E+02 0. -1.
</event>
<event>
 5    1  0.1360042E-008  0.3841275E+03  0.7957747E-01  0.3433381E+00
         13   -1    0    0    0    0  0.00000000000E+00  0.00000000000E+00  0.14999999963E+04  0.15000000000E+04  0.10566000000E+00 0. -1.
        994   -1    0    0    0    0 -0.00000000000E+00 -0.00000000000E+00  0.11368683772E-12  0.17120000000E+03  0.17120000000E+03 0.  0.
         13    1    1    2    0    0 -0.12336632315E+02  0.14842034374E+01  0.36389335897E+02  0.38452441897E+02  0.10566000000E+00 0. -1.
        994    1    1    2    0    0  0.13566361389E+02  0.14036327402E+02  0.33216763947E+01  0.17234134206E+03  0.17120000000E+03 0.  0.
        998    1    1    2    0    0 -0.12297290740E+01 -0.15520530840E+02  0.14602889840E+04  0.14604062160E+04  0.10000000000E+02 0. -1.
</event>
<event>
 5    1  0.1360042E-008  0.3762537E+03  0.7957747E-01  0.3467635E+00
         13   -1    0    0    0    0  0.00000000000E+00  0.00000000000E+00  0.14999999963E+04  0.15000000000E+04  0.10566000000E+00 0. -1.
        994   -1    0    0    0    0 -0.00000000000E+00 -0.00000000000E+00  0.11368683772E-12  0.17120000000E+03  0.17120000000E+03 0.  0.
         13    1    1    2    0    0 -0.20500472768E+02  0.15439494375E+02  0.50955534839E+02  0.57053703342E+02  0.10566000000E+00 0. -1.
        994    1    1    2    0    0  0.18596935238E+02 -0.15564414892E+02  0.80295028957E+01  0.17309537812E+03  0.17120000000E+03 0.  0.
        998    1    1    2    0    0  0.19035375299E+01  0.12492051663E+00  0.14410149585E+04  0.14410509185E+04  0.10000000000E+02 0. -1.
</event>
<event>
 5    1  0.1360042E-008  0.3761032E+03  0.7957747E-01  0.3468304E+00
         13   -1    0    0    0    0  0.00000000000E+00  0.00000000000E+00  0.14999999963E+04  0.15000000000E+04  0.10566000000E+00 0. -1.
        994   -1    0    0    0    0 -0.00000000000E+00 -0.00000000000E+00  0.11368683772E-12  0.17120000000E+03  0.17120000000E+03 0.  0.
         13    1    1    2    0    0  0.52710666492E+01 -0.19138948655E+02  0.30216993329E+02  0.36154686406E+02  0.10566000000E+00 0. -1.
        994    1    1    2    0    0 -0.50896215419E+01  0.63932026026E+01  0.63394851197E+01  0.17151211724E+03  0.17120000000E+03 0.  0.
        998    1    1    2    0    0 -0.18144510735E+00  0.12745746053E+02  0.14634435178E+04  0.14635331964E+04  0.10000000000E+02 0. -1.
</event>
<event>
 5    1  0.1360042E-008  0.3855510E+03  0.7957747E-01  0.3427339E+00
         13   -1    0    0    0    0  0.00000000000E+00  0.00000000000E+00  0.14999999963E+04  0.15000000000E+04  0.10566000000E+00 0. -1.
        994   -1    0    0    0    0 -0.00000000000E+00 -0.00000000000E+00  0.11368683772E-12  0.17120000000E+03  0.17120000000E+03 0.  0.
         13    1    1    2    0    0 -0.30929649328E+01  0.11559491850E+02  0.52775198158E+02  0.54114886940E+02  0.10566000000E+00 0. -1.
        994    1    1    2    0    0  0.10563179286E+02 -0.64054220609E+01  0.18579549420E+01  0.17165518397E+03  0.17120000000E+03 0.  0.
        998    1    1    2    0    0 -0.74702143534E+01 -0.51540697895E+01  0.14453668432E+04  0.14454299291E+04  0.10000000000E+02 0. -1.
</event>
<event>
 5    1  0.1360042E-008  0.3813257E+03  0.7957747E-01  0.3445406E+00
         13   -1    0    0    0    0  0.00000000000E+00  0.00000000000E+00  0.14999999963E+04  0.15000000000E+04  0.10566000000E+00 0.  1.
        994   -1    0    0    0    0 -0.00000000000E+00 -0.00000000000E+00  0.11368683772E-12  0.17120000000E+03  0.17120000000E+03 0.  0.
         13    1    1    2    0    0 -0.31778293141E+02  0.20031523347E+02  0.17928576533E+03  0.18317892525E+03  0.10566000000E+00 0.  1.
        994    1    1    2    0    0  0.36759658192E+02 -0.13641146747E+02  0.85992193913E+01  0.17584294108E+03  0.17120000000E+03 0.  0.
        998    1    1    2    0    0 -0.49813650513E+01 -0.63903766001E+01  0.13121150116E+04  0.13121781337E+04  0.10000000000E+02 0. -1.
</event>
<event>
 5    1  0.1360042E-008  0.4110403E+03  0.7957747E-01  0.3326222E+00
         13   -1    0    0    0    0  0.00000000000E+00  0.00000000000E+00  0.14999999963E+04  0.15000000000E+04  0.10566000000E+00 0. -1.
        994   -1    0    0    0    0 -0.00000000000E+00 -0.00000000000E+00  0.11368683772E-12  0.17120000000E+03  0.17120000000E+03 0.  0.
         13    1    1    2    0    0  0.50277995220E+02 -0.12574410129E+03  0.20782067155E+03  0.24805019351E+03  0.10566000000E+00 0. -1.
        994    1    1    2    0    0 -0.61044261121E+02  0.12924347729E+03  0.12459440891E+03  0.25546718961E+03  0.17120000000E+03 0.  0.
        998    1    1    2    0    0  0.10766265900E+02 -0.34993759969E+01  0.11675849158E+04  0.11676826169E+04  0.10000000000E+02 0. -1.
</event>
<event>
 5    1  0.1360042E-008  0.3763750E+03  0.7957747E-01  0.3467096E+00
         13   -1    0    0    0    0  0.00000000000E+00  0.00000000000E+00  0.14999999963E+04  0.15000000000E+04  0.10566000000E+00 0. -1.
        994   -1    0    0    0    0 -0.00000000000E+00 -0.00000000000E+00  0.11368683772E-12  0.17120000000E+03  0.17120000000E+03 0.  0.
         13    1    1    2    0    0  0.86516260478E+01  0.83131053226E+01  0.93337591999E+01  0.15201597884E+02  0.10566000000E+00 0. -1.
        994    1    1    2    0    0 -0.10958527286E+02 -0.26359651025E+01  0.64042766670E+01  0.17169010569E+03  0.17120000000E+03 0.  0.
        998    1    1    2    0    0  0.23069012387E+01 -0.56771402201E+01  0.14842619604E+04  0.14843082964E+04  0.10000000000E+02 0. -1.
</event>
<event>
 5    1  0.1360042E-008  0.3821331E+03  0.7957747E-01  0.3441923E+00
         13   -1    0    0    0    0  0.00000000000E+00  0.00000000000E+00  0.14999999963E+04  0.15000000000E+04  0.10566000000E+00 0. -1.
        994   -1    0    0    0    0 -0.00000000000E+00 -0.00000000000E+00  0.11368683772E-12  0.17120000000E+03  0.17120000000E+03 0.  0.
         13    1    1    2    0    0 -0.20705876032E+02  0.13977294914E+02  0.10198774819E+03  0.10500290482E+03  0.10566000000E+00 0. -1.
        994    1    1    2    0    0  0.73809547691E+01 -0.13639341058E+02  0.38590321239E+01  0.17194429984E+03  0.17120000000E+03 0.  0.
        998    1    1    2    0    0  0.13324921263E+02 -0.33795385637E+00  0.13941532160E+04  0.13942527953E+04  0.10000000000E+02 0. -1.
</event>
<event>
 5    1  0.1360042E-008  0.3822699E+03  0.7957747E-01  0.3441334E+00
         13   -1    0    0    0    0  0.00000000000E+00  0.00000000000E+00  0.14999999963E+04  0.15000000000E+04  0.10566000000E+00 0. -1.
        994   -1    0    0    0    0 -0.00000000000E+00 -0.00000000000E+00  0.11368683772E-12  0.17120000000E+03  0.17120000000E+03 0.  0.
         13    1    1    2    0    0 -0.35139006015E+02  0.39178096803E+01  0.16559280926E+03  0.16932539272E+03  0.10566000000E+00 0. -1.
        994    1    1    2    0    0  0.51071170138E+02 -0.54148565024E+01  0.11793124594E+02  0.17912594139E+03  0.17120000000E+03 0.  0.
        998    1    1    2    0    0 -0.15932164123E+02  0.14970468221E+01  0.13226140624E+04  0.13227486659E+04  0.10000000000E+02 0. -1.
</event>
<event>
 5    1  0.1360042E-008  0.3833903E+03  0.7957747E-01  0.3436528E+00
         13   -1    0    0    0    0  0.00000000000E+00  0.00000000000E+00  0.14999999963E+04  0.15000000000E+04  0.10566000000E+00 0.  1.
        994   -1    0    0    0    0 -0.00000000000E+00 -0.00000000000E+00  0.11368683772E-12  0.17120000000E+03  0.17120000000E+03 0.  0.
         13    1    1    2    0    0  0.18208022283E+02  0.11074171691E+02  0.88771315396E+02  0.91293630420E+02  0.10566000000E+00 0.  1.
        994    1    1    2    0    0 -0.14662072015E+02 -0.15605556168E+02  0.39486917186E+01  0.17257908884E+03  0.17120000000E+03 0.  0.
        998    1    1    2    0    0 -0.35459502680E+01  0.45313844769E+01  0.14072799892E+04  0.14073272807E+04  0.10000000000E+02 0.  1.
</event>
<event>
 5    1  0.1360042E-008  0.3801743E+03  0.7957747E-01  0.3450400E+00
         13   -1    0    0    0    0  0.00000000000E+00  0.00000000000E+00  0.14999999963E+04  0.15000000000E+04  0.10566000000E+00 0.  1.
        994   -1    0    0    0    0 -0.00000000000E+00 -0.00000000000E+00  0.11368683772E-12  0.17120000000E+03  0.17120000000E+03 0.  0.
         13    1    1    2    0    0 -0.36112666609E+02 -0.14963829412E+02  0.19687822945E+03  0.20072142207E+03  0.10566000000E+00 0.  1.
        994    1    1    2    0    0  0.37971612756E+02 -0.39381296610E+02  0.14109393192E+02  0.18028101640E+03  0.17120000000E+03 0.  0.
        998    1    1    2    0    0 -0.18589461467E+01  0.54345126022E+02  0.12890123736E+04  0.12901975615E+04  0.10000000000E+02 0.  1.
</event>
<event>
 5    1  0.1360042E-008  0.3850909E+03  0.7957747E-01  0.3429287E+00
         13   -1    0    0    0    0  0.00000000000E+00  0.00000000000E+00  0.14999999963E+04  0.15000000000E+04  0.10566000000E+00 0.  1.
        994   -1    0    0    0    0 -0.00000000000E+00 -0.00000000000E+00  0.11368683772E-12  0.17120000000E+03  0.17120000000E+03 0.  0.
         13    1    1    2    0    0 -0.77323199865E+01 -0.68114716020E+01  0.32159321102E+02  0.33770075741E+02  0.10566000000E+00 0.  1.
        994    1    1    2    0    0  0.91783185358E+01  0.12035217053E+02  0.23385640560E+01  0.17188367247E+03  0.17120000000E+03 0.  0.
        998    1    1    2    0    0 -0.14459985493E+01 -0.52237454510E+01  0.14655021111E+04  0.14655462518E+04  0.10000000000E+02 0.  1.
</event>
<event>
 5    1  0.1360042E-008  0.3843861E+03  0.7957747E-01  0.3432280E+00
         13   -1    0    0    0    0  0.00000000000E+00  0.00000000000E+00  0.14999999963E+04  0.15000000000E+04  0.10566000000E+00 0. -1.
        994   -1    0    0    0    0 -0.00000000000E+00 -0.00000000000E+00  0.11368683772E-12  0.17120000000E+03  0.17120000000E+03 0.  0.
         13    1    1    2    0    0  0.12121255658E+02  0.60270307957E+01  0.47267007578E+02  0.49167378498E+02  0.10566000000E+00 0. -1.
        994    1    1    2    0    0 -0.65910649900E+01 -0.45942395572E+01  0.21479599970E+01  0.17140187545E+03  0.17120000000E+03 0.  0.
        998    1    1    2    0    0 -0.55301906678E+01 -0.14327912385E+01  0.14505850287E+04  0.14506307461E+04  0.10000000000E+02 0. -1.
</event>
<event>
 5    1  0.1360042E-008  0.3806932E+03  0.7957747E-01  0.3448146E+00
         13   -1    0    0    0    0  0.00000000000E+00  0.00000000000E+00  0.14999999963E+04  0.15000000000E+04  0.10566000000E+00 0. -1.
        994   -1    0    0    0    0 -0.00000000000E+00 -0.00000000000E+00  0.11368683772E-12  0.17120000000E+03  0.17120000000E+03 0.  0.
         13    1    1    2    0    0  0.12587547693E+02  0.24249394576E+02  0.10357596386E+03  0.10711895700E+03  0.10566000000E+00 0. -1.
        994    1    1    2    0    0 -0.28777811622E+02  0.79920275186E+01  0.67645250501E+01  0.17391731870E+03  0.17120000000E+03 0.  0.
        998    1    1    2    0    0  0.16190263930E+02 -0.32241422095E+02  0.13896595074E+04  0.13901637243E+04  0.10000000000E+02 0. -1.
</event>
<event>
 5    1  0.1360042E-008  0.3804119E+03  0.7957747E-01  0.3449367E+00
         13   -1    0    0    0    0  0.00000000000E+00  0.00000000000E+00  0.14999999963E+04  0.15000000000E+04  0.10566000000E+00 0.  1.
        994   -1    0    0    0    0 -0.00000000000E+00 -0.00000000000E+00  0.11368683772E-12  0.17120000000E+03  0.17120000000E+03 0.  0.
         13    1    1    2    0    0  0.29157786691E+02 -0.24948684732E+02  0.16340329996E+03  0.16784892909E+03  0.10566000000E+00 0.  1.
        994    1    1    2    0    0 -0.39714682041E+02  0.18581343251E+02  0.10370298782E+02  0.17702967374E+03  0.17120000000E+03 0.  0.
        998    1    1    2    0    0  0.10556895350E+02  0.63673414809E+01  0.13262263975E+04  0.13263213972E+04  0.10000000000E+02 0.  1.
</event>
<event>
 5    1  0.1360042E-008  0.3821082E+03  0.7957747E-01  0.3442030E+00
         13   -1    0    0    0    0  0.00000000000E+00  0.00000000000E+00  0.14999999963E+04  0.15000000000E+04  0.10566000000E+00 0. -1.
        994   -1    0    0    0    0 -0.00000000000E+00 -0.00000000000E+00  0.11368683772E-12  0.17120000000E+03  0.17120000000E+03 0.  0.
         13    1    1    2    0    0  0.15229775749E+02 -0.11017434709E+01  0.37486691050E+02  0.40477439123E+02  0.10566000000E+00 0. -1.
        994    1    1    2    0    0 -0.59839569388E+01 -0.33927096626E+01  0.32297962067E+01  0.17136857881E+03  0.17120000000E+03 0.  0.
        998    1    1    2    0    0 -0.92458188101E+01  0.44944531336E+01  0.14592835090E+04  0.14593539821E+04  0.10000000000E+02 0. -1.
</event>
<event>
 5    1  0.1360042E-008  0.3775308E+03  0.7957747E-01  0.3461981E+00
         13   -1    0    0    0    0  0.00000000000E+00  0.00000000000E+00  0.14999999963E+04  0.15000000000E+04  0.10566000000E+00 0.  1.
        994   -1    0    0    0    0 -0.00000000000E+00 -0.00000000000E+00  0.11368683772E-12  0.17120000000E+03  0.17120000000E+03 0.  0.
         13    1    1    2    0    0  0.19186838852E+02  0.43789838530E+02  0.17227295286E+03  0.17878385328E+03  0.10566000000E+00 0.  1.
        994    1    1    2    0    0 -0.70529563638E+01 -0.64562735854E+02  0.19736143970E+02  0.18416581234E+03  0.17120000000E+03 0.  0.
        998    1    1    2    0    0 -0.12133882488E+02  0.20772897324E+02  0.13079908995E+04  0.13082503344E+04  0.10000000000E+02 0.  1.
</event>
<event>
 5    1  0.1360042E-008  0.3811292E+03  0.7957747E-01  0.3446256E+00
         13   -1    0    0    0    0  0.00000000000E+00  0.00000000000E+00  0.14999999963E+04  0.15000000000E+04  0.10566000000E+00 0. -1.
        994   -1    0    0    0    0 -0.00000000000E+00 -0.00000000000E+00  0.11368683772E-12  0.17120000000E+03  0.17120000000E+03 0.  0.
         13    1    1    2    0    0 -0.16032382655E+02 -0.36695865764E+02  0.21845749847E+03  0.22209753186E+03  0.10566000000E+00 0. -1.
        994    1    1    2    0    0 -0.78648093583E+00  0.28945216339E+02  0.63616613618E+01  0.17374796355E+03  0.17120000000E+03 0.  0.
        998    1    1    2    0    0  0.16818863591E+02  0.77506494251E+01  0.12751808365E+04  0.12753545046E+04  0.10000000000E+02 0. -1.
</event>
<event>
 5    1  0.1360042E-008  0.3841840E+03  0.7957747E-01  0.3433140E+00
         13   -1    0    0    0    0  0.00000000000E+00  0.00000000000E+00  0.14999999963E+04  0.15000000000E+04  0.10566000000E+00 0.  1.
        994   -1    0    0    0    0 -0.00000000000E+00 -0.00000000000E+00  0.11368683772E-12  0.17120000000E+03  0.17120000000E+03 0.  0.
         13    1    1    2    0    0 -0.85908932098E+00  0.13645256755E+02  0.44666341616E+02  0.46712143001E+02  0.10566000000E+00 0.  1.
        994    1    1    2    0    0  0.18898954027E-02 -0.12977131381E+02  0.25913107886E+01  0.17171068934E+03  0.17120000000E+03 0.  0.
        998    1    1    2    0    0  0.85719942557E+00 -0.66812537355E+00  0.14527423439E+04  0.14527771677E+04  0.10000000000E+02 0.  1.
</event>
<event>
 5    1  0.1360042E-008  0.4046771E+03  0.7957747E-01  0.3350279E+00
         13   -1    0    0    0    0  0.00000000000E+00  0.00000000000E+00  0.14999999963E+04  0.15000000000E+04  0.10566000000E+00 0. -1.
        994   -1    0    0    0    0 -0.00000000000E+00 -0.00000000000E+00  0.11368683772E-12  0.17120000000E+03  0.17120000000E+03 0.  0.
         13    1    1    2    0    0 -0.11418612809E+03 -0.26883196785E+02  0.26261769481E+03  0.28762691618E+03  0.10566000000E+00 0. -1.
        994    1    1    2    0    0  0.25239235678E+02  0.21699415083E+02  0.35037711459E+02  0.17789031693E+03  0.17120000000E+03 0.  0.
        998    1    1    2    0    0  0.88946892414E+02  0.51837817021E+01  0.12023445900E+04  0.12056827669E+04  0.10000000000E+02 0. -1.
</event>
<event>
 5    1  0.1360042E-008  0.3850577E+03  0.7957747E-01  0.3429427E+00
         13   -1    0    0    0    0  0.00000000000E+00  0.00000000000E+00  0.14999999963E+04  0.15000000000E+04  0.10566000000E+00 0. -1.
        994   -1    0    0    0    0 -0.00000000000E+00 -0.00000000000E+00  0.11368683772E-12  0.17120000000E+03  0.17120000000E+03 0.  0.
         13    1    1    2    0    0  0.91916473689E+01 -0.12881768173E+02  0.69320309911E+02  0.71103747179E+02  0.10566000000E+00 0. -1.
        994    1    1    2    0    0 -0.14293996655E+02  0.25628997573E+02  0.44381428677E+01  0.17375356390E+03  0.17120000000E+03 0.  0.
        998    1    1    2    0    0  0.51023492865E+01 -0.12747229400E+02  0.14262415435E+04  0.14263426889E+04  0.10000000000E+02 0. -1.
</event>
<event>
 5    1  0.1360042E-008  0.3782856E+03  0.7957747E-01  0.3458658E+00
         13   -1    0    0    0    0  0.00000000000E+00  0.00000000000E+00  0.14999999963E+04  0.15000000000E+04  0.10566000000E+00 0. -1.
        994   -1    0    0    0    0 -0.00000000000E+00 -0.00000000000E+00  0.11368683772E-12  0.17120000000E+03  0.17120000000E+03 0.  0.
         13    1    1    2    0    0 -0.22680561899E+02 -0.19139705224E+02  0.89077166893E+02  0.93890835708E+02  0.10566000000E+00 0. -1.
        994    1    1    2    0    0  0.36505395722E+01  0.13046480395E+02  0.56183644958E+01  0.17182707327E+03  0.17120000000E+03 0.  0.
        998    1    1    2    0    0  0.19030022327E+02  0.60932248286E+01  0.14053044649E+04  0.14054820910E+04  0.10000000000E+02 0. -1.
</event>
<event>
 5    1  0.1360042E-008  0.3783958E+03  0.7957747E-01  0.3458173E+00
         13   -1    0    0    0    0  0.00000000000E+00  0.00000000000E+00  0.14999999963E+04  0.15000000000E+04  0.10566000000E+00 0. -1.
        994   -1    0    0    0    0 -0.00000000000E+00 -0.00000000000E+00  0.11368683772E-12  0.17120000000E+03  0.17120000000E+03 0.  0.
         13    1    1    2    0    0  0.25721147786E+02 -0.71151341168E+01  0.68971560903E+02  0.73954647956E+02  0.10566000000E+00 0. -1.
        994    1    1    2    0    0 -0.23930624353E+02 -0.67552145636E+01  0.70258605072E+01  0.17313899163E+03  0.17120000000E+03 0.  0.
        998    1    1    2    0    0 -0.17905234338E+01  0.13870348680E+02  0.14240025749E+04  0.14241063604E+04  0.10000000000E+02 0. -1.
</event>
<event>
 5    1  0.1360042E-008  0.3791913E+03  0.7957747E-01  0.3454687E+00
         13   -1    0    0    0    0  0.00000000000E+00  0.00000000000E+00  0.14999999963E+04  0.15000000000E+04  0.10566000000E+00 0. -1.
        994   -1    0    0    0    0 -0.00000000000E+00 -0.00000000000E+00  0.11368683772E-12  0.17120000000E+03  0.17120000000E+03 0.  0.
         13    1    1    2    0    0  0.56171660795E+01 -0.27480116746E+02  0.84240041886E+02  0.88786852586E+02  0.10566000000E+00 0. -1.
        994    1    1    2    0    0 -0.99560971892E+00  0.19484587854E+02  0.58188330242E+01  0.17240632013E+03  0.17120000000E+03 0.  0.
        998    1    1    2    0    0 -0.46215563606E+01  0.79955288915E+01  0.14099411214E+04  0.14100068273E+04  0.10000000000E+02 0. -1.
</event>
<event>
 5    1  0.1360042E-008  0.3733444E+03  0.7957747E-01  0.3480660E+00
         13   -1    0    0    0    0  0.00000000000E+00  0.00000000000E+00  0.14999999963E+04  0.15000000000E+04  0.10566000000E+00 0.  1.
        994   -1    0    0    0    0 -0.00000000000E+00 -0.00000000000E+00  0.11368683772E-12  0.17120000000E+03  0.17120000000E+03 0.  0.
         13    1    1    2    0    0  0.23968845347E+02 -0.45037681387E+02  0.90401232204E+02  0.10380410512E+03  0.10566000000E+00 0.  1.
        994    1    1    2    0    0 -0.27318646765E+02  0.50592406322E+02  0.24506473482E+02  0.18225231763E+03  0.17120000000E+03 0.  0.
        998    1    1    2    0    0  0.33498014172E+01 -0.55547249347E+01  0.13850922906E+04  0.13851435773E+04  0.10000000000E+02 0.  1.
</event>
<event>
 5    1  0.1360042E-008  0.4022778E+03  0.7957747E-01  0.3359545E+00
         13   -1    0    0    0    0  0.00000000000E+00  0.00000000000E+00  0.14999999963E+04  0.15000000000E+04  0.10566000000E+00 0. -1.
        994   -1    0    0    0    0 -0.00000000000E+00 -0.00000000000E+00  0.11368683772E-12  0.17120000000E+03  0.17120000000E+03 0.  0.
         13    1    1    2    0    0 -0.19361384824E+02  0.10071537330E+03  0.15820595421E+03  0.18854067135E+03  0.10566000000E+00 0. -1.
        994    1    1    2    0    0  0.16499152306E+02 -0.93059121249E+02  0.65401439228E+02  0.20620138294E+03  0.17120000000E+03 0.  0.
        998    1    1    2    0    0  0.28622325179E+01 -0.76562520536E+01  0.12763926028E+04  0.12764579457E+04  0.10000000000E+02 0. -1.
</event>
<event>
 5    1  0.1360042E-008  0.3771715E+03  0.7957747E-01  0.3463568E+00
         13   -1    0    0    0    0  0.00000000000E+00  0.00000000000E+00  0.14999999963E+04  0.15000000000E+04  0.10566000000E+00 0. -1.
        994   -1    0    0    0    0 -0.00000000000E+00 -0.00000000000E+00  0.11368683772E-12  0.17120000000E+03  0.17120000000E+03 0.  0.
         13    1    1    2    0    0 -0.11175472669E+02  0.41329372132E+02  0.15373342422E+03  0.15958378701E+03  0.10566000000E+00 0. -1.
        994    1    1    2    0    0 -0.33616324600E+01 -0.37621174786E+02  0.10397180433E+02  0.17562515402E+03  0.17120000000E+03 0.  0.
        998    1    1    2    0    0  0.14537105129E+02 -0.37081973452E+01  0.13358693916E+04  0.13359910590E+04  0.10000000000E+02 0. -1.
</event>
<event>
 5    1  0.1360042E-008  0.3823840E+03  0.7957747E-01  0.3440843E+00
         13   -1    0    0    0    0  0.00000000000E+00  0.00000000000E+00  0.14999999963E+04  0.15000000000E+04  0.10566000000E+00 0.  1.
        994   -1    0    0    0    0 -0.00000000000E+00 -0.00000000000E+00  0.11368683772E-12  0.17120000000E+03  0.17120000000E+03 0.  0.
         13    1    1    2    0    0 -0.24122823834E+02 -0.14873479281E+02  0.15776503362E+03  0.16029019936E+03  0.10566000000E+00 0.  1.
        994    1    1    2    0    0 -0.48592654724E+00 -0.34188361750E+01  0.29741029288E+01  0.17126064888E+03  0.17120000000E+03 0.  0.
        998    1    1    2    0    0  0.24608750381E+02  0.18292315455E+02  0.13392608597E+04  0.13396491518E+04  0.10000000000E+02 0.  1.
</event>
<event>
 5    1  0.1360042E-008  0.3772020E+03  0.7957747E-01  0.3463433E+00
         13   -1    0    0    0    0  0.00000000000E+00  0.00000000000E+00  0.14999999963E+04  0.15000000000E+04  0.10566000000E+00 0.  1.
        994   -1    0    0    0    0 -0.00000000000E+00 -0.00000000000E+00  0.11368683772E-12  0.17120000000E+03  0.17120000000E+03 0.  0.
         13    1    1    2    0    0  0.10292494073E+02  0.38196082460E+01  0.82819076539E+01  0.13752308891E+02  0.10566000000E+00 0.  1.
        994    1    1    2    0    0 -0.10866587624E+02 -0.23036625293E+01  0.59687198175E+01  0.17166378536E+03  0.17120000000E+03 0.  0.
        998    1    1    2    0    0  0.57409355131E+00 -0.15159457167E+01  0.14857493688E+04  0.14857839058E+04  0.10000000000E+02 0.  1.
</event>
<event>
 5    1  0.1360042E-008  0.3816164E+03  0.7957747E-01  0.3444150E+00
         13   -1    0    0    0    0  0.00000000000E+00  0.00000000000E+00  0.14999999963E+04  0.15000000000E+04  0.10566000000E+00 0.  1.
        994   -1    0    0    0    0 -0.00000000000E+00 -0.00000000000E+00  0.11368683772E-12  0.17120000000E+03  0.17120000000E+03 0.  0.
         13    1    1    2    0    0  0.22212654762E+00  0.17461205604E+02  0.43610768305E+02  0.46977157402E+02  0.10566000000E+00 0.  1.
        994    1    1    2    0    0  0.17195584394E+01 -0.18295917620E+02  0.44431178927E+01  0.17224075818E+03  0.17120000000E+03 0.  0.
        998    1    1    2    0    0 -0.19416849870E+01  0.83471201565E+00  0.14519461101E+04  0.14519820844E+04  0.10000000000E+02 0.  1.
</event>
<event>
 5    1  0.1360042E-008  0.3800174E+03  0.7957747E-01  0.3451083E+00
         13   -1    0    0    0    0  0.00000000000E+00  0.00000000000E+00  0.14999999963E+04  0.15000000000E+04  0.10566000000E+00 0.  1.
        994   -1    0    0    0    0 -0.00000000000E+00 -0.00000000000E+00  0.11368683772E-12  0.17120000000E+03  0.17120000000E+03 0.  0.
         13    1    1    2    0    0 -0.11127361730E+02 -0.12089345380E+01  0.13231052439E+02  0.17330655339E+02  0.10566000000E+00 0.  1.
        994    1    1    2    0    0  0.12782691371E+02  0.48345992271E+01  0.47489489096E+01  0.17181025308E+03  0.17120000000E+03 0.  0.
        998    1    1    2    0    0 -0.16553296409E+01 -0.36256646891E+01  0.14820199949E+04  0.14820590916E+04  0.10000000000E+02 0.  1.
</event>
<event>
 5    1  0.1360042E-008  0.3837745E+03  0.7957747E-01  0.3434886E+00
         13   -1    0    0    0    0  0.00000000000E+00  0.00000000000E+00  0.14999999963E+04  0.15000000000E+04  0.10566000000E+00 0. -1.
        994   -1    0    0    0    0 -0.00000000000E+00 -0.00000000000E+00  0.11368683772E-12  0.17120000000E+03  0.17120000000E+03 0.  0.
         13    1    1    2    0    0 -0.34814901521E+01 -0.18084576185E+02  0.73487278345E+02  0.75759909662E+02  0.10566000000E+00 0. -1.
        994    1    1    2    0    0 -0.52880077036E+01  0.17223603858E+02  0.33123500622E+01  0.17217731331E+03  0.17120000000E+03 0.  0.
        998    1    1    2    0    0  0.87694978557E+01  0.86097232608E+00  0.14232003679E+04  0.14232627770E+04  0.10000000000E+02 0. -1.
</event>
<event>
 5    1  0.1762454E-008  0.3849363E+03  0.7957747E-01  0.3429943E+00
         13   -1    0    0    0    0  0.00000000000E+00  0.00000000000E+00  0.14999999963E+04  0.15000000000E+04  0.10566000000E+00 0.  1.
        994   -1    0    0    0    0 -0.00000000000E+00 -0.00000000000E+00  0.11368683772E-12  0.17120000000E+03  0.17120000000E+03 0.  0.
         13    1    1    2    0    0 -0.79080040749E+01  0.17493727794E+02  0.10256170047E+03  0.10434309085E+03  0.10566000000E+00 0.  1.
        994    1    1    2    0    0  0.91437861097E+01 -0.20274099245E+02  0.32905317504E+01  0.17266996127E+03  0.17120000000E+03 0.  0.
        998    1    1    2    0    0 -0.12357820347E+01  0.27803714504E+01  0.13941477641E+04  0.13941869479E+04  0.10000000000E+02 0.  1.
</event>
<event>
 5    1  0.1360042E-008  0.3788054E+03  0.7957747E-01  0.3456377E+00
         13   -1    0    0    0    0  0.00000000000E+00  0.00000000000E+00  0.14999999963E+04  0.15000000000E+04  0.10566000000E+00 0.  1.
        994   -1    0    0    0    0 -0.00000000000E+00 -0.00000000000E+00  0.11368683772E-12  0.17120000000E+03  0.17120000000E+03 0.  0.
         13    1    1    2    0    0 -0.18403400858E+02  0.16067487457E+02  0.65792676337E+02  0.70182168248E+02  0.10566000000E+00 0.  1.
        994    1    1    2    0    0  0.13858321675E+02  0.18989633008E+02  0.65944231812E+01  0.17293231525E+03  0.17120000000E+03 0.  0.
        998    1    1    2    0    0  0.45450791839E+01 -0.35057120465E+02  0.14276128968E+04  0.14280855165E+04  0.10000000000E+02 0.  1.
</event>
<event>
 5    1  0.1360042E-008  0.3774309E+03  0.7957747E-01  0.3462422E+00
         13   -1    0    0    0    0  0.00000000000E+00  0.00000000000E+00  0.14999999963E+04  0.15000000000E+04  0.10566000000E+00 0. -1.
        994   -1    0    0    0    0 -0.00000000000E+00 -0.00000000000E+00  0.11368683772E-12  0.17120000000E+03  0.17120000000E+03 0.  0.
         13    1    1    2    0    0 -0.43069469171E-02 -0.19338161864E+02  0.33327154205E+02  0.38531479264E+02  0.10566000000E+00 0. -1.
        994    1    1    2    0    0 -0.54764959554E+01  0.12869505126E+01  0.55423644195E+01  0.17138204706E+03  0.17120000000E+03 0.  0.
        998    1    1    2    0    0  0.54808029023E+01  0.18051211351E+02  0.14611304777E+04  0.14612864737E+04  0.10000000000E+02 0. -1.
</event>
<event>
 5    1  0.1360042E-008  0.3837379E+03  0.7957747E-01  0.3435042E+00
         13   -1    0    0    0    0  0.00000000000E+00  0.00000000000E+00  0.14999999963E+04  0.15000000000E+04  0.10566000000E+00 0.  1.
        994   -1    0    0    0    0 -0.00000000000E+00 -0.00000000000E+00  0.11368683772E-12  0.17120000000E+03  0.17120000000E+03 0.  0.
         13    1    1    2    0    0  0.10981214261E+02  0.12689025608E+02  0.77256667192E+02  0.79058220491E+02  0.10566000000E+00 0.  1.
        994    1    1    2    0    0  0.41100426461E+01  0.29401223062E+02  0.51737331014E+01  0.17383190697E+03  0.17120000000E+03 0.  0.
        998    1    1    2    0    0 -0.15091256907E+02 -0.42090248670E+02  0.14175695960E+04  0.14183098725E+04  0.10000000000E+02 0.  1.
</event>
<event>
 5    1  0.1360042E-008  0.3782946E+03  0.7957747E-01  0.3458618E+00
         13   -1    0    0    0    0  0.00000000000E+00  0.00000000000E+00  0.14999999963E+04  0.15000000000E+04  0.10566000000E+00 0. -1.
        994   -1    0    0    0    0 -0.00000000000E+00 -0.00000000000E+00  0.11368683772E-12  0.17120000000E+03  0.17120000000E+03 0.  0.
         13    1    1    2    0    0 -0.50066034470E+01  0.17906573027E+02  0.34016804089E+02  0.38766810033E+02  0.10566000000E+00 0. -1.
        994    1    1    2    0    0  0.45718341674E+01  0.30036866561E+01  0.50971243332E+01  0.17136319464E+03  0.17120000000E+03 0.  0.
        998    1    1    2    0    0  0.43476927954E+00 -0.20910259683E+02  0.14608860679E+04  0.14610699953E+04  0.10000000000E+02 0. -1.
</event>
<event>
 5    1  0.1360042E-008  0.3706213E+03  0.7957747E-01  0.3493040E+00
         13   -1    0    0    0    0  0.00000000000E+00  0.00000000000E+00  0.14999999963E+04  0.15000000000E+04  0.10566000000E+00 0. -1.
        994   -1    0    0    0    0 -0.00000000000E+00 -0.00000000000E+00  0.11368683772E-12  0.17120000000E+03  0.17120000000E+03 0.  0.
         13    1    1    2    0    0  0.48428331579E+02 -0.35489193987E+02  0.19109572971E+03  0.20030570453E+03  0.10566000000E+00 0. -1.
        994    1    1    2    0    0 -0.38530924045E+02  0.19963346697E+02  0.15470204443E+02  0.17729053710E+03  0.17120000000E+03 0.  0.
        998    1    1    2    0    0 -0.98974075342E+01  0.15525847290E+02  0.12934340621E+04  0.12936037584E+04  0.10000000000E+02 0. -1.
</event>
<event>
 5    1  0.1360042E-008  0.3785578E+03  0.7957747E-01  0.3457462E+00
         13   -1    0    0    0    0  0.00000000000E+00  0.00000000000E+00  0.14999999963E+04  0.15000000000E+04  0.10566000000E+00 0.  1.
        994   -1    0    0    0    0 -0.00000000000E+00 -0.00000000000E+00  0.11368683772E-12  0.17120000000E+03  0.17120000000E+03 0.  0.
         13    1    1    2    0    0 -0.24650893106E+02  0.49316718317E+02  0.30037893243E+03  0.30539698664E+03  0.10566000000E+00 0.  1.
        994    1    1    2    0    0  0.24196856084E+02 -0.27583715041E+02  0.93985583430E+01  0.17534001847E+03  0.17120000000E+03 0.  0.
        998    1    1    2    0    0  0.45403702182E+00 -0.21733003276E+02  0.11902225055E+04  0.11904629949E+04  0.10000000000E+02 0.  1.
</event>
<event>
 5    1  0.1360042E-008  0.3765232E+03  0.7957747E-01  0.3466438E+00
         13   -1    0    0    0    0  0.00000000000E+00  0.00000000000E+00  0.14999999963E+04  0.15000000000E+04  0.10566000000E+00 0.  1.
        994   -1    0    0    0    0 -0.00000000000E+00 -0.00000000000E+00  0.11368683772E-12  0.17120000000E+03  0.17120000000E+03 0.  0.
         13    1    1    2    0    0 -0.52257671362E+02  0.56842941019E+02  0.19440284082E+03  0.20917566743E+03  0.10566000000E+00 0.  1.
        994    1    1    2    0    0  0.38515710305E+02 -0.40798556099E+02  0.25780942844E+02  0.18199472282E+03  0.17120000000E+03 0.  0.
        998    1    1    2    0    0  0.13741961057E+02 -0.16044384920E+02  0.12798162126E+04  0.12800296098E+04  0.10000000000E+02 0.  1.
</event>
<event>
 5    1  0.1360042E-008  0.3685742E+03  0.7957747E-01  0.3502469E+00
         13   -1    0    0    0    0  0.00000000000E+00  0.00000000000E+00  0.14999999963E+04  0.15000000000E+04  0.10566000000E+00 0. -1.
        994   -1    0    0    0    0 -0.00000000000E+00 -0.00000000000E+00  0.11368683772E-12  0.17120000000E+03  0.17120000000E+03 0.  0.
         13    1    1    2    0    0 -0.80186040336E+02 -0.15509928922E+02  0.42829118528E+03  0.43600884110E+03  0.10566000000E+00 0. -1.
        994    1    1    2    0    0  0.14605738722E+02 -0.37901235907E+01  0.10979310630E+02  0.17221404676E+03  0.17120000000E+03 0.  0.
        998    1    1    2    0    0  0.65580301614E+02  0.19300052513E+02  0.10607295004E+04  0.10629771121E+04  0.10000000000E+02 0. -1.
</event>
<event>
 5    1  0.1360042E-008  0.3821743E+03  0.7957747E-01  0.3441746E+00
         13   -1    0    0    0    0  0.00000000000E+00  0.00000000000E+00  0.14999999963E+04  0.15000000000E+04  0.10566000000E+00 0.  1.
        994   -1    0    0    0    0 -0.00000000000E+00 -0.00000000000E+00  0.11368683772E-12  0.17120000000E+03  0.17120000000E+03 0.  0.
         13    1    1    2    0    0  0.23898924888E+02 -0.18664111358E+02  0.14585556592E+03  0.14897437678E+03  0.10566000000E+00 0.  1.
        994    1    1    2    0    0 -0.12663646825E+02  0.19994669165E+02  0.49009965379E+01  0.17289769956E+03  0.17120000000E+03 0.  0.
        998    1    1    2    0    0 -0.11235278063E+02 -0.13305578073E+01  0.13492434338E+04  0.13493279237E+04  0.10000000000E+02 0.  1.
</event>
<event>
 5    1  0.1360042E-008  0.3793261E+03  0.7957747E-01  0.3454098E+00
         13   -1    0    0    0    0  0.00000000000E+00  0.00000000000E+00  0.14999999963E+04  0.15000000000E+04  0.10566000000E+00 0.  1.
        994   -1    0    0    0    0 -0.00000000000E+00 -0.00000000000E+00  0.11368683772E-12  0.17120000000E+03  0.17120000000E+03 0.  0.
         13    1    1    2    0    0  0.13298637505E+02  0.11819279606E+01  0.17615082881E+02  0.22103235557E+02  0.10566000000E+00 0.  1.
        994    1    1    2    0    0 -0.18529326934E+02  0.18096843719E+01  0.56358190058E+01  0.17230151877E+03  0.17120000000E+03 0.  0.
        998    1    1    2    0    0  0.52306894300E+01 -0.29916123325E+01  0.14767490944E+04  0.14767952457E+04  0.10000000000E+02 0.  1.
</event>
<event>
 5    1  0.1360042E-008  0.3856508E+03  0.7957747E-01  0.3426917E+00
         13   -1    0    0    0    0  0.00000000000E+00  0.00000000000E+00  0.14999999963E+04  0.15000000000E+04  0.10566000000E+00 0.  1.
        994   -1    0    0    0    0 -0.00000000000E+00 -0.00000000000E+00  0.11368683772E-12  0.17120000000E+03  0.17120000000E+03 0.  0.
         13    1    1    2    0    0  0.30992416083E+01  0.95778878019E+01  0.38867141938E+02  0.40149808464E+02  0.10566000000E+00 0.  1.
        994    1    1    2    0    0  0.76424221475E+00 -0.78153312791E+01  0.15097420409E+01  0.17138664706E+03  0.17120000000E+03 0.  0.
        998    1    1    2    0    0 -0.38634838230E+01 -0.17625565228E+01  0.14596231123E+04  0.14596635445E+04  0.10000000000E+02 0.  1.
</event>
<event>
 5    1  0.1360042E-008  0.3788695E+03  0.7957747E-01  0.3456096E+00
         13   -1    0    0    0    0  0.00000000000E+00  0.00000000000E+00  0.14999999963E+04  0.15000000000E+04  0.10566000000E+00 0. -1.
        994   -1    0    0    0    0 -0.00000000000E+00 -0.00000000000E+00  0.11368683772E-12  0.17120000000E+03  0.17120000000E+03 0.  0.
         13    1    1    2    0    0 -0.14938154102E+02  0.34819486017E+02  0.38209820365E+02  0.53810283319E+02  0.10566000000E+00 0. -1.
        994    1    1    2    0    0  0.22875024782E+02 -0.35743120432E+02  0.22234311576E+02  0.17777694459E+03  0.17120000000E+03 0.  0.
        998    1    1    2    0    0 -0.79368706797E+01  0.92363441503E+00  0.14395558643E+04  0.14396127721E+04  0.10000000000E+02 0. -1.
</event>
<event>
 5    1  0.1360042E-008  0.3797252E+03  0.7957747E-01  0.3452356E+00
         13   -1    0    0    0    0  0.00000000000E+00  0.00000000000E+00  0.14999999963E+04  0.15000000000E+04  0.10566000000E+00 0.  1.
        994   -1    0    0    0    0 -0.00000000000E+00 -0.00000000000E+00  0.11368683772E-12  0.17120000000E+03  0.17120000000E+03 0.  0.
         13    1    1    2    0    0  0.57007812801E+02 -0.97562301288E+02  0.51952600964E+03  0.53167243600E+03  0.10566000000E+00 0.  1.
        994    1    1    2    0    0 -0.72794257632E+02  0.14140701981E+03  0.94160770062E+02  0.25193380046E+03  0.17120000000E+03 0.  0.
        998    1    1    2    0    0  0.15786444831E+02 -0.43844718523E+02  0.88631321658E+03  0.88759376353E+03  0.10000000000E+02 0.  1.
</event>
<event>
 5    1  0.1360042E-008  0.3860501E+03  0.7957747E-01  0.3425231E+00
         13   -1    0    0    0    0  0.00000000000E+00  0.00000000000E+00  0.14999999963E+04  0.15000000000E+04  0.10566000000E+00 0.  1.
        994   -1    0    0    0    0 -0.00000000000E+00 -0.00000000000E+00  0.11368683772E-12  0.17120000000E+03  0.17120000000E+03 0.  0.
         13    1    1    2    0    0  0.99752455950E+01  0.67043441348E+01  0.64059052155E+02  0.65176890705E+02  0.10566000000E+00 0.  1.
        994    1    1    2    0    0 -0.10311432631E+02 -0.57850869287E+01  0.15679778602E+01  0.17161495106E+03  0.17120000000E+03 0.  0.
        998    1    1    2    0    0  0.33618703577E+00 -0.91925720609E+00  0.14343729663E+04  0.14344081582E+04  0.10000000000E+02 0.  0.
</event>
<event>
 5    1  0.1360042E-008  0.3687004E+03  0.7957747E-01  0.3501885E+00
         13   -1    0    0    0    0  0.00000000000E+00  0.00000000000E+00  0.14999999963E+04  0.15000000000E+04  0.10566000000E+00 0. -1.
        994   -1    0    0    0    0 -0.00000000000E+00 -0.00000000000E+00  0.11368683772E-12  0.17120000000E+03  0.17120000000E+03 0.  0.
         13    1    1    2    0    0  0.75858002882E+02  0.61160994169E+02  0.53168431449E+03  0.54053984613E+03  0.10566000000E+00 0. -1.
        994    1    1    2    0    0 -0.45832750185E+02 -0.15156089426E+02  0.18087812073E+02  0.17879305630E+03  0.17120000000E+03 0.  0.
        998    1    1    2    0    0 -0.30025252696E+02 -0.46004904742E+02  0.95022786971E+03  0.95186709757E+03  0.10000000000E+02 0. -1.
</event>
<event>
 5    1  0.1360042E-008  0.3840369E+03  0.7957747E-01  0.3433767E+00
         13   -1    0    0    0    0  0.00000000000E+00  0.00000000000E+00  0.14999999963E+04  0.15000000000E+04  0.10566000000E+00 0.  1.
        994   -1    0    0    0    0 -0.00000000000E+00 -0.00000000000E+00  0.11368683772E-12  0.17120000000E+03  0.17120000000E+03 0.  0.
         13    1    1    2    0    0  0.68575501321E+01 -0.11067069885E+02  0.44313987310E+02  0.46187083314E+02  0.10566000000E+00 0.  1.
        994    1    1    2    0    0 -0.11656101403E+02 -0.23737022682E+02  0.44194448399E+01  0.17328670589E+03  0.17120000000E+03 0.  0.
        998    1    1    2    0    0  0.47985512706E+01  0.34804092568E+02  0.14512665641E+04  0.14517262108E+04  0.10000000000E+02 0.  1.
</event>
<event>
 5    1  0.1360042E-008  0.3818039E+03  0.7957747E-01  0.3443341E+00
         13   -1    0    0    0    0  0.00000000000E+00  0.00000000000E+00  0.14999999963E+04  0.15000000000E+04  0.10566000000E+00 0.  1.
        994   -1    0    0    0    0 -0.00000000000E+00 -0.00000000000E+00  0.11368683772E-12  0.17120000000E+03  0.17120000000E+03 0.  0.
         13    1    1    2    0    0 -0.26263446904E+02 -0.18082053615E+02  0.14430501229E+03  0.14778591626E+03  0.10566000000E+00 0.  1.
        994    1    1    2    0    0  0.23664470685E+02  0.19951897329E+02  0.64156551127E+01  0.17409389998E+03  0.17120000000E+03 0.  0.
        998    1    1    2    0    0  0.25989762191E+01 -0.18698437146E+01  0.13492793289E+04  0.13493201838E+04  0.10000000000E+02 0.  1.
</event>
<event>
 5    1  0.1360042E-008  0.3833803E+03  0.7957747E-01  0.3436571E+00
         13   -1    0    0    0    0  0.00000000000E+00  0.00000000000E+00  0.14999999963E+04  0.15000000000E+04  0.10566000000E+00 0.  1.
        994   -1    0    0    0    0 -0.00000000000E+00 -0.00000000000E+00  0.11368683772E-12  0.17120000000E+03  0.17120000000E+03 0.  0.
         13    1    1    2    0    0  0.11654278698E+02 -0.10863660738E+02  0.52836341044E+02  0.55186333775E+02  0.10566000000E+00 0.  1.
        994    1    1    2    0    0 -0.60284080399E+01  0.66805788658E+00  0.25580374257E+01  0.17132650571E+03  0.17120000000E+03 0.  0.
        998    1    1    2    0    0 -0.56258706579E+01  0.10195602852E+02  0.14446056178E+04  0.14446871605E+04  0.10000000000E+02 0.  1.
</event>
<event>
 5    1  0.1360042E-008  0.3830211E+03  0.7957747E-01  0.3438109E+00
         13   -1    0    0    0    0  0.00000000000E+00  0.00000000000E+00  0.14999999963E+04  0.15000000000E+04  0.10566000000E+00 0. -1.
        994   -1    0    0    0    0 -0.00000000000E+00 -0.00000000000E+00  0.11368683772E-12  0.17120000000E+03  0.17120000000E+03 0.  0.
         13    1    1    2    0    0  0.14100321333E+02  0.98430679525E+01  0.55898013408E+02  0.58483366143E+02  0.10566000000E+00 0. -1.
        994    1    1    2    0    0 -0.67046084360E+01 -0.91032147721E+01  0.30390258329E+01  0.17159981344E+03  0.17120000000E+03 0.  0.
        998    1    1    2    0    0 -0.73957128974E+01 -0.73985318042E+00  0.14410629570E+04  0.14411168204E+04  0.10000000000E+02 0. -1.
</event>
<event>
 5    1  0.1360042E-008  0.3777076E+03  0.7957747E-01  0.3461201E+00
         13   -1    0    0    0    0  0.00000000000E+00  0.00000000000E+00  0.14999999963E+04  0.15000000000E+04  0.10566000000E+00 0.  1.
        994   -1    0    0    0    0 -0.00000000000E+00 -0.00000000000E+00  0.11368683772E-12  0.17120000000E+03  0.17120000000E+03 0.  0.
         13    1    1    2    0    0  0.31169303650E+02  0.17935245012E+01  0.85868441677E+02  0.91368170936E+02  0.10566000000E+00 0.  1.
        994    1    1    2    0    0 -0.30557056360E+02 -0.58020215620E+00  0.84476189433E+01  0.17411166702E+03  0.17120000000E+03 0.  0.
        998    1    1    2    0    0 -0.61224729047E+00 -0.12133223450E+01  0.14056839357E+04  0.14057201620E+04  0.10000000000E+02 0.  1.
</event>
<event>
 5    1  0.1360042E-008  0.3825149E+03  0.7957747E-01  0.3440281E+00
         13   -1    0    0    0    0  0.00000000000E+00  0.00000000000E+00  0.14999999963E+04  0.15000000000E+04  0.10566000000E+00 0.  1.
        994   -1    0    0    0    0 -0.00000000000E+00 -0.00000000000E+00  0.11368683772E-12  0.17120000000E+03  0.17120000000E+03 0.  0.
         13    1    1    2    0    0 -0.27889422364E+02 -0.65351162314E+01  0.12976857861E+03  0.13289252343E+03  0.10566000000E+00 0.  1.
        994    1    1    2    0    0  0.28649471269E+02  0.11631217903E+02  0.60451967377E+01  0.17407487423E+03  0.17120000000E+03 0.  0.
        998    1    1    2    0    0 -0.76004890504E+00 -0.50961016716E+01  0.13641862209E+04  0.13642326023E+04  0.10000000000E+02 0.  1.
</event>
<event>
 5    1  0.1360042E-008  0.3848272E+03  0.7957747E-01  0.3430405E+00
         13   -1    0    0    0    0  0.00000000000E+00  0.00000000000E+00  0.14999999963E+04  0.15000000000E+04  0.10566000000E+00 0.  1.
        994   -1    0    0    0    0 -0.00000000000E+00 -0.00000000000E+00  0.11368683772E-12  0.17120000000E+03  0.17120000000E+03 0.  0.
         13    1    1    2    0    0  0.18842862289E+02  0.34410298011E+01  0.11374652390E+03  0.11534806894E+03  0.10566000000E+00 0.  1.
        994    1    1    2    0    0 -0.76996192089E+01  0.14316896124E+02  0.25859769507E+01  0.17198949075E+03  0.17120000000E+03 0.  0.
        998    1    1    2    0    0 -0.11143243080E+02 -0.17757925925E+02  0.13836674954E+04  0.13838624403E+04  0.10000000000E+02 0.  1.
</event>
<event>
 5    1  0.1360042E-008  0.3840465E+03  0.7957747E-01  0.3433726E+00
         13   -1    0    0    0    0  0.00000000000E+00  0.00000000000E+00  0.14999999963E+04  0.15000000000E+04  0.10566000000E+00 0. -1.
        994   -1    0    0    0    0 -0.00000000000E+00 -0.00000000000E+00  0.11368683772E-12  0.17120000000E+03  0.17120000000E+03 0.  0.
         13    1    1    2    0    0  0.19933750674E+02  0.12533735284E+02  0.13293350577E+03  0.13500287795E+03  0.10566000000E+00 0. -1.
        994    1    1    2    0    0 -0.10020717478E+02 -0.82988176441E+01  0.26629413136E+01  0.17171434538E+03  0.17120000000E+03 0.  0.
        998    1    1    2    0    0 -0.99130331952E+01 -0.42349176395E+01  0.13644035492E+04  0.13644827767E+04  0.10000000000E+02 0. -1.
</event>
<event>
 5    1  0.1360042E-008  0.3788969E+03  0.7957747E-01  0.3455976E+00
         13   -1    0    0    0    0  0.00000000000E+00  0.00000000000E+00  0.14999999963E+04  0.15000000000E+04  0.10566000000E+00 0.  1.
        994   -1    0    0    0    0 -0.00000000000E+00 -0.00000000000E+00  0.11368683772E-12  0.17120000000E+03  0.17120000000E+03 0.  0.
         13    1    1    2    0    0 -0.38579184905E+02  0.97478326827E-01  0.15736563801E+03  0.16202567142E+03  0.10566000000E+00 0.  1.
        994    1    1    2    0    0  0.22298081674E+02 -0.77235911642E+01  0.65616145695E+01  0.17294320771E+03  0.17120000000E+03 0.  0.
        998    1    1    2    0    0  0.16281103231E+02  0.76261128373E+01  0.13360727437E+04  0.13362311209E+04  0.10000000000E+02 0.  1.
</event>
<event>
 5    1  0.1360042E-008  0.3848995E+03  0.7957747E-01  0.3430098E+00
         13   -1    0    0    0    0  0.00000000000E+00  0.00000000000E+00  0.14999999963E+04  0.15000000000E+04  0.10566000000E+00 0.  1.
        994   -1    0    0    0    0 -0.00000000000E+00 -0.00000000000E+00  0.11368683772E-12  0.17120000000E+03  0.17120000000E+03 0.  0.
         13    1    1    2    0    0 -0.42210586052E+01 -0.13046344221E+02  0.61275587654E+02  0.62791187596E+02  0.10566000000E+00 0.  1.
        994    1    1    2    0    0  0.42729210748E+01 -0.74583050093E+01  0.19231315666E+01  0.17142643496E+03  0.17120000000E+03 0.  0.
        998    1    1    2    0    0 -0.51862469578E-01  0.20504649230E+02  0.14368012771E+04  0.14369823774E+04  0.10000000000E+02 0.  1.
</event>
<event>
 5    1  0.1360042E-008  0.3748974E+03  0.7957747E-01  0.3473682E+00
         13   -1    0    0    0    0  0.00000000000E+00  0.00000000000E+00  0.14999999963E+04  0.15000000000E+04  0.10566000000E+00 0. -1.
        994   -1    0    0    0    0 -0.00000000000E+00 -0.00000000000E+00  0.11368683772E-12  0.17120000000E+03  0.17120000000E+03 0.  0.
         13    1    1    2    0    0 -0.85253805953E+01 -0.33639015659E+02  0.96327247534E+02  0.10238757381E+03  0.10566000000E+00 0. -1.
        994    1    1    2    0    0 -0.48071342839E+01 -0.17638146138E+01  0.68205844404E+01  0.17141230981E+03  0.17120000000E+03 0.  0.
        998    1    1    2    0    0  0.13332514879E+02  0.35402830273E+02  0.13968521643E+04  0.13974001164E+04  0.10000000000E+02 0. -1.
</event>
<event>
 5    1  0.2499918E-008  0.3861090E+03  0.7957747E-01  0.3424982E+00
         13   -1    0    0    0    0  0.00000000000E+00  0.00000000000E+00  0.14999999963E+04  0.15000000000E+04  0.10566000000E+00 0.  1.
        994   -1    0    0    0    0 -0.00000000000E+00 -0.00000000000E+00  0.11368683772E-12  0.17120000000E+03  0.17120000000E+03 0.  0.
         13    1    1    2    0    0  0.11721607079E+02  0.37595109058E+01  0.73345289511E+02  0.74371181598E+02  0.10566000000E+00 0.  1.
        994    1    1    2    0    0 -0.42934027293E+01 -0.75342185456E+00  0.11427830139E+01  0.17125929728E+03  0.17120000000E+03 0.  0.
        998    1    1    2    0    0 -0.74282043497E+01 -0.30060890513E+01  0.14255119238E+04  0.14255695211E+04  0.10000000000E+02 0.  1.
</event>
<event>
 5    1  0.1360042E-008  0.3857840E+03  0.7957747E-01  0.3426354E+00
         13   -1    0    0    0    0  0.00000000000E+00  0.00000000000E+00  0.14999999963E+04  0.15000000000E+04  0.10566000000E+00 0. -1.
        994   -1    0    0    0    0 -0.00000000000E+00 -0.00000000000E+00  0.11368683772E-12  0.17120000000E+03  0.17120000000E+03 0.  0.
         13    1    1    2    0    0 -0.48395476775E+01 -0.11822205099E+02  0.64244876171E+02  0.65502679589E+02  0.10566000000E+00 0. -1.
        994    1    1    2    0    0  0.10775778000E+02  0.95736344863E+01  0.19232248083E+01  0.17181650288E+03  0.17120000000E+03 0.  0.
        998    1    1    2    0    0 -0.59362303222E+01  0.22485706125E+01  0.14338318953E+04  0.14338808175E+04  0.10000000000E+02 0. -1.
</event>
<event>
 5    1  0.1360042E-008  0.3840409E+03  0.7957747E-01  0.3433750E+00
         13   -1    0    0    0    0  0.00000000000E+00  0.00000000000E+00  0.14999999963E+04  0.15000000000E+04  0.10566000000E+00 0. -1.
        994   -1    0    0    0    0 -0.00000000000E+00 -0.00000000000E+00  0.11368683772E-12  0.17120000000E+03  0.17120000000E+03 0.  0.
         13    1    1    2    0    0 -0.96617687865E+01  0.18598812761E+02  0.10541646717E+03  0.10747980427E+03  0.10566000000E+00 0. -1.
        994    1    1    2    0    0 -0.83669871384E+01 -0.17115122123E+02  0.33052836507E+01  0.17228841743E+03  0.17120000000E+03 0.  0.
        998    1    1    2    0    0  0.18028755925E+02 -0.14836906379E+01  0.13912782455E+04  0.13914317783E+04  0.10000000000E+02 0. -1.
</event>
<event>
 5    1  0.1360042E-008  0.3819625E+03  0.7957747E-01  0.3442657E+00
         13   -1    0    0    0    0  0.00000000000E+00  0.00000000000E+00  0.14999999963E+04  0.15000000000E+04  0.10566000000E+00 0. -1.
        994   -1    0    0    0    0 -0.00000000000E+00 -0.00000000000E+00  0.11368683772E-12  0.17120000000E+03  0.17120000000E+03 0.  0.
         13    1    1    2    0    0 -0.42863139905E+01  0.12037128187E+02 -0.33944110503E+01  0.13221124500E+02  0.10566000000E+00 0. -1.
        994    1    1    2    0    0  0.31736012137E+01 -0.19029044485E+02  0.18768978405E+02  0.17330288754E+03  0.17120000000E+03 0.  0.
        998    1    1    2    0    0  0.11127127768E+01  0.69919162974E+01  0.14846254289E+04  0.14846759880E+04  0.10000000000E+02 0. -1.
</event>
<event>
 5    1  0.1360042E-008  0.3843900E+03  0.7957747E-01  0.3432263E+00
         13   -1    0    0    0    0  0.00000000000E+00  0.00000000000E+00  0.14999999963E+04  0.15000000000E+04  0.10566000000E+00 0. -1.
        994   -1    0    0    0    0 -0.00000000000E+00 -0.00000000000E+00  0.11368683772E-12  0.17120000000E+03  0.17120000000E+03 0.  0.
         13    1    1    2    0    0  0.23091034104E+01 -0.19795096905E+02  0.11082256909E+03  0.11260031440E+03  0.10566000000E+00 0. -1.
        994    1    1    2    0    0 -0.27474000173E+01  0.21196387035E+01  0.19729841409E+01  0.17124652914E+03  0.17120000000E+03 0.  0.
        998    1    1    2    0    0  0.43829660683E+00  0.17675458201E+02  0.13872044430E+04  0.13873531565E+04  0.10000000000E+02 0. -1.
</event>
<event>
 5    1  0.1360042E-008  0.3835324E+03  0.7957747E-01  0.3435920E+00
         13   -1    0    0    0    0  0.00000000000E+00  0.00000000000E+00  0.14999999963E+04  0.15000000000E+04  0.10566000000E+00 0.  1.
        994   -1    0    0    0    0 -0.00000000000E+00 -0.00000000000E+00  0.11368683772E-12  0.17120000000E+03  0.17120000000E+03 0.  0.
         13    1    1    2    0    0  0.21210955098E+01  0.24982362256E+02  0.11563796271E+03  0.11832483701E+03  0.10566000000E+00 0.  1.
        994    1    1    2    0    0 -0.47211612277E+01 -0.34662911983E+02  0.64149774371E+01  0.17485536528E+03  0.17120000000E+03 0.  0.
        998    1    1    2    0    0  0.26000657179E+01  0.96805497268E+01  0.13779470561E+04  0.13780197977E+04  0.10000000000E+02 0.  1.
</event>
<event>
 5    1  0.1360042E-008  0.3830257E+03  0.7957747E-01  0.3438089E+00
         13   -1    0    0    0    0  0.00000000000E+00  0.00000000000E+00  0.14999999963E+04  0.15000000000E+04  0.10566000000E+00 0.  1.
        994   -1    0    0    0    0 -0.00000000000E+00 -0.00000000000E+00  0.11368683772E-12  0.17120000000E+03  0.17120000000E+03 0.  0.
         13    1    1    2    0    0 -0.10410458315E+02 -0.43619239402E+01  0.23046826884E+02  0.25662646322E+02  0.10566000000E+00 0.  1.
        994    1    1    2    0    0  0.13474880663E+02  0.14320883362E+01  0.32214992055E+01  0.17176565822E+03  0.17120000000E+03 0.  0.
        998    1    1    2    0    0 -0.30644223482E+01  0.29298356040E+01  0.14737316702E+04  0.14737716955E+04  0.10000000000E+02 0.  1.
</event>
<event>
 5    1  0.1360042E-008  0.3855282E+03  0.7957747E-01  0.3427435E+00
         13   -1    0    0    0    0  0.00000000000E+00  0.00000000000E+00  0.14999999963E+04  0.15000000000E+04  0.10566000000E+00 0. -1.
        994   -1    0    0    0    0 -0.00000000000E+00 -0.00000000000E+00  0.11368683772E-12  0.17120000000E+03  0.17120000000E+03 0.  0.
         13    1    1    2    0    0 -0.45736343786E+00 -0.11623828511E+02  0.53684598057E+02  0.54930590777E+02  0.10566000000E+00 0. -1.
        994    1    1    2    0    0  0.84980103205E+01 -0.45970911347E+01  0.16746286957E+01  0.17148059309E+03  0.17120000000E+03 0.  0.
        998    1    1    2    0    0 -0.80406468827E+01  0.16220919646E+02  0.14446407695E+04  0.14447888161E+04  0.10000000000E+02 0. -1.
</event>
<event>
 5    1  0.1360042E-008  0.3726499E+03  0.7957747E-01  0.3483800E+00
         13   -1    0    0    0    0  0.00000000000E+00  0.00000000000E+00  0.14999999963E+04  0.15000000000E+04  0.10566000000E+00 0.  1.
        994   -1    0    0    0    0 -0.00000000000E+00 -0.00000000000E+00  0.11368683772E-12  0.17120000000E+03  0.17120000000E+03 0.  0.
         13    1    1    2    0    0 -0.56036384938E+02  0.41045390953E+02  0.32060586191E+03  0.32804409827E+03  0.10566000000E+00 0.  1.
        994    1    1    2    0    0  0.20327787165E+02 -0.27021046826E+02  0.11818153963E+02  0.17490701720E+03  0.17120000000E+03 0.  0.
        998    1    1    2    0    0  0.35708597773E+02 -0.14024344127E+02  0.11675759804E+04  0.11682488845E+04  0.10000000000E+02 0. -1.
</event>
<event>
 5    1  0.1360042E-008  0.3739309E+03  0.7957747E-01  0.3478018E+00
         13   -1    0    0    0    0  0.00000000000E+00  0.00000000000E+00  0.14999999963E+04  0.15000000000E+04  0.10566000000E+00 0. -1.
        994   -1    0    0    0    0 -0.00000000000E+00 -0.00000000000E+00  0.11368683772E-12  0.17120000000E+03  0.17120000000E+03 0.  0.
         13    1    1    2    0    0  0.37226275306E+02  0.14662276762E+02  0.10400176812E+03  0.11143229724E+03  0.10566000000E+00 0. -1.
        994    1    1    2    0    0 -0.31882662951E+02 -0.11676535596E+02  0.11171826022E+02  0.17489166755E+03  0.17120000000E+03 0.  0.
        998    1    1    2    0    0 -0.53436123545E+01 -0.29857411663E+01  0.13848264021E+04  0.13848760352E+04  0.10000000000E+02 0. -1.
</event>
<event>
 5    1  0.1360042E-008  0.3795712E+03  0.7957747E-01  0.3453028E+00
         13   -1    0    0    0    0  0.00000000000E+00  0.00000000000E+00  0.14999999963E+04  0.15000000000E+04  0.10566000000E+00 0. -1.
        994   -1    0    0    0    0 -0.00000000000E+00 -0.00000000000E+00  0.11368683772E-12  0.17120000000E+03  0.17120000000E+03 0.  0.
         13    1    1    2    0    0 -0.64765830514E+01 -0.41399468202E+02  0.16234482340E+03  0.16766548525E+03  0.10566000000E+00 0. -1.
        994    1    1    2    0    0 -0.93833417746E+01  0.60546153005E+02  0.17020626440E+02  0.18262810701E+03  0.17120000000E+03 0.  0.
        998    1    1    2    0    0  0.15859924826E+02 -0.19146684803E+02  0.13206345464E+04  0.13209064077E+04  0.10000000000E+02 0. -1.
</event>
<event>
 5    1  0.1360042E-008  0.3818758E+03  0.7957747E-01  0.3443031E+00
         13   -1    0    0    0    0  0.00000000000E+00  0.00000000000E+00  0.14999999963E+04  0.15000000000E+04  0.10566000000E+00 0. -1.
        994   -1    0    0    0    0 -0.00000000000E+00 -0.00000000000E+00  0.11368683772E-12  0.17120000000E+03  0.17120000000E+03 0.  0.
         13    1    1    2    0    0 -0.35635734316E+02 -0.18769492554E+03  0.11368903244E+04  0.11528308252E+04  0.10566000000E+00 0. -1.
        994    1    1    2    0    0  0.51198073249E+02  0.18391041737E+03  0.13558768081E+03  0.29006506771E+03  0.17120000000E+03 0.  0.
        998    1    1    2    0    0 -0.15562338933E+02  0.37845081703E+01  0.22752199110E+03  0.22830410712E+03  0.10000000000E+02 0. -1.
</event>
<event>
 5    1  0.1360042E-008  0.3812720E+03  0.7957747E-01  0.3445639E+00
         13   -1    0    0    0    0  0.00000000000E+00  0.00000000000E+00  0.14999999963E+04  0.15000000000E+04  0.10566000000E+00 0.  1.
        994   -1    0    0    0    0 -0.00000000000E+00 -0.00000000000E+00  0.11368683772E-12  0.17120000000E+03  0.17120000000E+03 0.  0.
         13    1    1    2    0    0  0.12390105525E+02  0.45140772566E+02  0.26976687559E+03  0.27379806865E+03  0.10566000000E+00 0.  1.
        994    1    1    2    0    0  0.29543363506E+01 -0.45491795762E+02  0.10441842773E+02  0.17747310688E+03  0.17120000000E+03 0.  0.
        998    1    1    2    0    0 -0.15344441875E+02  0.35102319570E+00  0.12197912779E+04  0.12199288245E+04  0.10000000000E+02 0.  1.
</event>
<event>
 5    1  0.1360042E-008  0.3825776E+03  0.7957747E-01  0.3440011E+00
         13   -1    0    0    0    0  0.00000000000E+00  0.00000000000E+00  0.14999999963E+04  0.15000000000E+04  0.10566000000E+00 0. -1.
        994   -1    0    0    0    0 -0.00000000000E+00 -0.00000000000E+00  0.11368683772E-12  0.17120000000E+03  0.17120000000E+03 0.  0.
         13    1    1    2    0    0  0.33618523776E+02 -0.13243174931E+02  0.20599656871E+03  0.20914154132E+03  0.10566000000E+00 0. -1.
        994    1    1    2    0    0 -0.34407000893E+02  0.34646750250E+01  0.68115936223E+01  0.17479039874E+03  0.17120000000E+03 0.  0.
        998    1    1    2    0    0  0.78847711675E+00  0.97784999060E+01  0.12871918340E+04  0.12872680599E+04  0.10000000000E+02 0. -1.
</event>
<event>
 5    1  0.1360042E-008  0.3784599E+03  0.7957747E-01  0.3457892E+00
         13   -1    0    0    0    0  0.00000000000E+00  0.00000000000E+00  0.14999999963E+04  0.15000000000E+04  0.10566000000E+00 0. -1.
        994   -1    0    0    0    0 -0.00000000000E+00 -0.00000000000E+00  0.11368683772E-12  0.17120000000E+03  0.17120000000E+03 0.  0.
         13    1    1    2    0    0  0.28901783623E+02 -0.28238713247E+02  0.17000627235E+03  0.17474232981E+03  0.10566000000E+00 0. -1.
        994    1    1    2    0    0 -0.30168998484E+02 -0.37257617629E+01  0.80236880792E+01  0.17406283159E+03  0.17120000000E+03 0.  0.
        998    1    1    2    0    0  0.12672148606E+01  0.31964475009E+02  0.13219700358E+04  0.13223948386E+04  0.10000000000E+02 0. -1.
</event>
<event>
 5    1  0.1360042E-008  0.3815182E+03  0.7957747E-01  0.3444574E+00
         13   -1    0    0    0    0  0.00000000000E+00  0.00000000000E+00  0.14999999963E+04  0.15000000000E+04  0.10566000000E+00 0. -1.
        994   -1    0    0    0    0 -0.00000000000E+00 -0.00000000000E+00  0.11368683772E-12  0.17120000000E+03  0.17120000000E+03 0.  0.
         13    1    1    2    0    0  0.73849399946E+01 -0.20902512601E+02  0.72503560890E+02  0.75817081700E+02  0.10566000000E+00 0. -1.
        994    1    1    2    0    0 -0.34892316105E+01  0.11513450475E+02  0.38502968053E+01  0.17166536944E+03  0.17120000000E+03 0.  0.
        998    1    1    2    0    0 -0.38957083842E+01  0.93890621260E+01  0.14236461386E+04  0.14237175489E+04  0.10000000000E+02 0. -1.
</event>
<event>
 5    1  0.1360042E-008  0.3813003E+03  0.7957747E-01  0.3445516E+00
         13   -1    0    0    0    0  0.00000000000E+00  0.00000000000E+00  0.14999999963E+04  0.15000000000E+04  0.10566000000E+00 0.  1.
        994   -1    0    0    0    0 -0.00000000000E+00 -0.00000000000E+00  0.11368683772E-12  0.17120000000E+03  0.17120000000E+03 0.  0.
         13    1    1    2    0    0  0.62434353952E+01 -0.23144389294E+02  0.81568517873E+02  0.85018101092E+02  0.10566000000E+00 0.  1.
        994    1    1    2    0    0 -0.13822617334E+02  0.11501626063E+02  0.45552299334E+01  0.17220203910E+03  0.17120000000E+03 0.  0.
        998    1    1    2    0    0  0.75791819385E+01  0.11642763231E+02  0.14138762485E+04  0.14139798598E+04  0.10000000000E+02 0.  1.
</event>
<event>
 5    1  0.1360042E-008  0.3839420E+03  0.7957747E-01  0.3434172E+00
         13   -1    0    0    0    0  0.00000000000E+00  0.00000000000E+00  0.14999999963E+04  0.15000000000E+04  0.10566000000E+00 0. -1.
        994   -1    0    0    0    0 -0.00000000000E+00 -0.00000000000E+00  0.11368683772E-12  0.17120000000E+03  0.17120000000E+03 0.  0.
         13    1    1    2    0    0  0.92554036420E+01  0.58502169649E+01  0.27192298834E+02  0.29314157245E+02  0.10566000000E+00 0. -1.
        994    1    1    2    0    0 -0.56248824752E+01 -0.46651305714E+01  0.23325865570E+01  0.17137177045E+03  0.17120000000E+03 0.  0.
        998    1    1    2    0    0 -0.36305211668E+01 -0.11850863935E+01  0.14704751109E+04  0.14705140723E+04  0.10000000000E+02 0. -1.
</event>
<event>
 5    1  0.1988641E-008  0.3864318E+03  0.7957747E-01  0.3423622E+00
         13   -1    0    0    0    0  0.00000000000E+00  0.00000000000E+00  0.14999999963E+04  0.15000000000E+04  0.10566000000E+00 0. -1.
        994   -1    0    0    0    0 -0.00000000000E+00 -0.00000000000E+00  0.11368683772E-12  0.17120000000E+03  0.17120000000E+03 0.  0.
         13    1    1    2    0    0  0.20536579203E+01 -0.10893094885E+02  0.66795174227E+02  0.67708813983E+02  0.10566000000E+00 0. -1.
        994    1    1    2    0    0 -0.26661662289E+01  0.92624768081E+01  0.12250991026E+01  0.17147548742E+03  0.17120000000E+03 0.  0.
        998    1    1    2    0    0  0.61250830861E+00  0.16306180771E+01  0.14319797229E+04  0.14320156986E+04  0.10000000000E+02 0. -1.
</event>
<event>
 5    1  0.1360042E-008  0.3793883E+03  0.7957747E-01  0.3453826E+00
         13   -1    0    0    0    0  0.00000000000E+00  0.00000000000E+00  0.14999999963E+04  0.15000000000E+04  0.10566000000E+00 0.  1.
        994   -1    0    0    0    0 -0.00000000000E+00 -0.00000000000E+00  0.11368683772E-12  0.17120000000E+03  0.17120000000E+03 0.  0.
         13    1    1    2    0    0 -0.26834708249E+02  0.18551403470E+02  0.11055875084E+03  0.11527143917E+03  0.10566000000E+00 0.  1.
        994    1    1    2    0    0  0.31332469520E+02 -0.11990701259E+02  0.82215350860E+01  0.17464974721E+03  0.17120000000E+03 0.  0.
        998    1    1    2    0    0 -0.44977612710E+01 -0.65607022104E+01  0.13812197104E+04  0.13812788136E+04  0.10000000000E+02 0.  1.
</event>
<event>
 5    1  0.1360042E-008  0.3850288E+03  0.7957747E-01  0.3429550E+00
         13   -1    0    0    0    0  0.00000000000E+00  0.00000000000E+00  0.14999999963E+04  0.15000000000E+04  0.10566000000E+00 0.  1.
        994   -1    0    0    0    0 -0.00000000000E+00 -0.00000000000E+00  0.11368683772E-12  0.17120000000E+03  0.17120000000E+03 0.  0.
         13    1    1    2    0    0  0.85667099572E+01 -0.13762237644E+02  0.89535532561E+02  0.90991265841E+02  0.10566000000E+00 0.  1.
        994    1    1    2    0    0  0.23302553595E+02  0.13436570391E+02  0.39987433044E+01  0.17334641726E+03  0.17120000000E+03 0.  0.
        998    1    1    2    0    0 -0.31869263552E+02  0.32566725365E+00  0.14064657204E+04  0.14068623169E+04  0.10000000000E+02 0.  1.
</event>
<event>
 5    1  0.1360042E-008  0.3857214E+03  0.7957747E-01  0.3426618E+00
         13   -1    0    0    0    0  0.00000000000E+00  0.00000000000E+00  0.14999999963E+04  0.15000000000E+04  0.10566000000E+00 0.  1.
        994   -1    0    0    0    0 -0.00000000000E+00 -0.00000000000E+00  0.11368683772E-12  0.17120000000E+03  0.17120000000E+03 0.  0.
         13    1    1    2    0    0  0.38010454639E+01 -0.11059470964E+02  0.56811182474E+02  0.58002426352E+02  0.10566000000E+00 0.  1.
        994    1    1    2    0    0  0.43132894104E+01  0.22560195928E+01  0.13501316759E+01  0.17127450758E+03  0.17120000000E+03 0.  0.
        998    1    1    2    0    0 -0.81143348743E+01  0.88034513708E+01  0.14418386821E+04  0.14419230661E+04  0.10000000000E+02 0.  1.
</event>
<event>
 5    1  0.1360042E-008  0.3856758E+03  0.7957747E-01  0.3426811E+00
         13   -1    0    0    0    0  0.00000000000E+00  0.00000000000E+00  0.14999999963E+04  0.15000000000E+04  0.10566000000E+00 0.  1.
        994   -1    0    0    0    0 -0.00000000000E+00 -0.00000000000E+00  0.11368683772E-12  0.17120000000E+03  0.17120000000E+03 0.  0.
         13    1    1    2    0    0  0.15447830789E+02  0.30841982387E+01  0.93324516335E+02  0.94644726573E+02  0.10566000000E+00 0.  1.
        994    1    1    2    0    0 -0.12946357404E+02 -0.72840884174E+01  0.20194335732E+01  0.17185512569E+03  0.17120000000E+03 0.  0.
        998    1    1    2    0    0 -0.25014733849E+01  0.41998901787E+01  0.14046560464E+04  0.14047001477E+04  0.10000000000E+02 0.  0.
</event>
<event>
 5    1  0.1360042E-008  0.3825729E+03  0.7957747E-01  0.3440032E+00
         13   -1    0    0    0    0  0.00000000000E+00  0.00000000000E+00  0.14999999963E+04  0.15000000000E+04  0.10566000000E+00 0.  1.
        994   -1    0    0    0    0 -0.00000000000E+00 -0.00000000000E+00  0.11368683772E-12  0.17120000000E+03  0.17120000000E+03 0.  0.
         13    1    1    2    0    0  0.12367772480E+02 -0.12527329964E+02  0.52953050231E+02  0.55802620771E+02  0.10566000000E+00 0.  1.
        994    1    1    2    0    0 -0.10371933679E+02  0.10099526015E+02  0.35349807400E+01  0.17184735530E+03  0.17120000000E+03 0.  0.
        998    1    1    2    0    0 -0.19958388009E+01  0.24278039489E+01  0.14435119653E+04  0.14435500239E+04  0.10000000000E+02 0.  1.
</event>
<event>
 5    1  0.1360042E-008  0.3820360E+03  0.7957747E-01  0.3442341E+00
         13   -1    0    0    0    0  0.00000000000E+00  0.00000000000E+00  0.14999999963E+04  0.15000000000E+04  0.10566000000E+00 0.  1.
        994   -1    0    0    0    0 -0.00000000000E+00 -0.00000000000E+00  0.11368683772E-12  0.17120000000E+03  0.17120000000E+03 0.  0.
         13    1    1    2    0    0 -0.22230994977E+02  0.10624638723E+02  0.10515032552E+03  0.10799862132E+03  0.10566000000E+00 0.  1.
        994    1    1    2    0    0  0.59145421728E+01  0.92315171408E+01  0.35081264150E+01  0.17158656611E+03  0.17120000000E+03 0.  0.
        998    1    1    2    0    0  0.16316452804E+02 -0.19856155864E+02  0.13913415443E+04  0.13916148126E+04  0.10000000000E+02 0.  1.
</event>
<event>
 5    1  0.1360042E-008  0.3832511E+03  0.7957747E-01  0.3437124E+00
         13   -1    0    0    0    0  0.00000000000E+00  0.00000000000E+00  0.14999999963E+04  0.15000000000E+04  0.10566000000E+00 0. -1.
        994   -1    0    0    0    0 -0.00000000000E+00 -0.00000000000E+00  0.11368683772E-12  0.17120000000E+03  0.17120000000E+03 0.  0.
         13    1    1    2    0    0 -0.66335382486E+01 -0.14634291725E+02  0.49925081088E+02  0.52447032420E+02  0.10566000000E+00 0. -1.
        994    1    1    2    0    0  0.60693729682E+01  0.13513003217E+02  0.32270361892E+01  0.17186998664E+03  0.17120000000E+03 0.  0.
        998    1    1    2    0    0  0.56416528037E+00  0.11212885083E+01  0.14468478790E+04  0.14468829809E+04  0.10000000000E+02 0. -1.
</event>
<event>
 5    1  0.1360042E-008  0.4174826E+03  0.7957747E-01  0.3302603E+00
         13   -1    0    0    0    0  0.00000000000E+00  0.00000000000E+00  0.14999999963E+04  0.15000000000E+04  0.10566000000E+00 0.  1.
        994   -1    0    0    0    0 -0.00000000000E+00 -0.00000000000E+00  0.11368683772E-12  0.17120000000E+03  0.17120000000E+03 0.  0.
         13    1    1    2    0    0  0.11995653403E+03  0.20295421299E+02  0.24967267937E+03  0.27773716382E+03  0.10566000000E+00 0.  1.
        994    1    1    2    0    0 -0.39357832656E+01  0.33280421146E+02  0.43425438846E+02  0.17977287215E+03  0.17120000000E+03 0.  0.
        998    1    1    2    0    0 -0.11602075077E+03 -0.53575842444E+02  0.12069018781E+04  0.12136899640E+04  0.10000000000E+02 0.  1.
</event>
<event>
 5    1  0.1360042E-008  0.4053482E+03  0.7957747E-01  0.3347706E+00
         13   -1    0    0    0    0  0.00000000000E+00  0.00000000000E+00  0.14999999963E+04  0.15000000000E+04  0.10566000000E+00 0.  1.
        994   -1    0    0    0    0 -0.00000000000E+00 -0.00000000000E+00  0.11368683772E-12  0.17120000000E+03  0.17120000000E+03 0.  0.
         13    1    1    2    0    0 -0.59617758069E+01 -0.43385581933E+02  0.19062068147E+02  0.47762172234E+02  0.10566000000E+00 0.  1.
        994    1    1    2    0    0  0.71024394440E+01  0.35109047996E+02  0.36166000867E+02  0.17860713736E+03  0.17120000000E+03 0.  0.
        998    1    1    2    0    0 -0.11406636372E+01  0.82765339362E+01  0.14447719273E+04  0.14448306904E+04  0.10000000000E+02 0.  1.
</event>
<event>
 5    1  0.1360042E-008  0.3865085E+03  0.7957747E-01  0.3423299E+00
         13   -1    0    0    0    0  0.00000000000E+00  0.00000000000E+00  0.14999999963E+04  0.15000000000E+04  0.10566000000E+00 0. -1.
        994   -1    0    0    0    0 -0.00000000000E+00 -0.00000000000E+00  0.11368683772E-12  0.17120000000E+03  0.17120000000E+03 0.  0.
         13    1    1    2    0    0  0.13057731926E+03 -0.18905357283E+03  0.11226642057E+04  0.11459348234E+04  0.10566000000E+00 0. -1.
        994    1    1    2    0    0 -0.14171334644E+03  0.19960552098E+03  0.23055414996E+03  0.37734558780E+03  0.17120000000E+03 0.  0.
        998    1    1    2    0    0  0.11136027180E+02 -0.10551948149E+02  0.14678164064E+03  0.14791958876E+03  0.10000000000E+02 0. -1.
</event>
<event>
 5    1  0.1360042E-008  0.3759106E+03  0.7957747E-01  0.3469160E+00
         13   -1    0    0    0    0  0.00000000000E+00  0.00000000000E+00  0.14999999963E+04  0.15000000000E+04  0.10566000000E+00 0. -1.
        994   -1    0    0    0    0 -0.00000000000E+00 -0.00000000000E+00  0.11368683772E-12  0.17120000000E+03  0.17120000000E+03 0.  0.
         13    1    1    2    0    0  0.35439923964E+01  0.13806927017E+02  0.13472718273E+02  0.19614189187E+02  0.10566000000E+00 0. -1.
        994    1    1    2    0    0 -0.30438937226E+01 -0.14507877701E+02  0.69568517711E+01  0.17198134082E+03  0.17120000000E+03 0.  0.
        998    1    1    2    0    0 -0.50009867387E+00  0.70095068388E+00  0.14795704262E+04  0.14796044700E+04  0.10000000000E+02 0. -1.
</event>
<event>
 5    1  0.1360042E-008  0.3841815E+03  0.7957747E-01  0.3433151E+00
         13   -1    0    0    0    0  0.00000000000E+00  0.00000000000E+00  0.14999999963E+04  0.15000000000E+04  0.10566000000E+00 0. -1.
        994   -1    0    0    0    0 -0.00000000000E+00 -0.00000000000E+00  0.11368683772E-12  0.17120000000E+03  0.17120000000E+03 0.  0.
         13    1    1    2    0    0 -0.58452031931E+01  0.17066335729E+02  0.86680580092E+02  0.88537903436E+02  0.10566000000E+00 0. -1.
        994    1    1    2    0    0  0.41006310023E+01  0.27671304204E+01  0.21177404797E+01  0.17128454983E+03  0.17120000000E+03 0.  0.
        998    1    1    2    0    0  0.17445721908E+01 -0.19833466150E+02  0.14112016757E+04  0.14113775467E+04  0.10000000000E+02 0. -1.
</event>
<event>
 5    1  0.1360042E-008  0.3851841E+03  0.7957747E-01  0.3428892E+00
         13   -1    0    0    0    0  0.00000000000E+00  0.00000000000E+00  0.14999999963E+04  0.15000000000E+04  0.10566000000E+00 0.  1.
        994   -1    0    0    0    0 -0.00000000000E+00 -0.00000000000E+00  0.11368683772E-12  0.17120000000E+03  0.17120000000E+03 0.  0.
         13    1    1    2    0    0 -0.58331783404E+01 -0.10523572168E+02  0.47604855235E+02  0.49101985161E+02  0.10566000000E+00 0.  1.
        994    1    1    2    0    0  0.50712839633E+01  0.40775178121E+01  0.16779528013E+01  0.17133184058E+03  0.17120000000E+03 0.  0.
        998    1    1    2    0    0  0.76189437708E+00  0.64460543562E+01  0.14507171882E+04  0.14507661743E+04  0.10000000000E+02 0.  1.
</event>
<event>
 5    1  0.1360042E-008  0.4100389E+03  0.7957747E-01  0.3329959E+00
         13   -1    0    0    0    0  0.00000000000E+00  0.00000000000E+00  0.14999999963E+04  0.15000000000E+04  0.10566000000E+00 0. -1.
        994   -1    0    0    0    0 -0.00000000000E+00 -0.00000000000E+00  0.11368683772E-12  0.17120000000E+03  0.17120000000E+03 0.  0.
         13    1    1    2    0    0 -0.76742562088E+02  0.11834156749E+02  0.74439722431E+02  0.10756742788E+03  0.10566000000E+00 0. -1.
        994    1    1    2    0    0  0.77658562306E+02 -0.55490553386E+01  0.59126180640E+02  0.19714712666E+03  0.17120000000E+03 0.  0.
        998    1    1    2    0    0 -0.91600021736E+00 -0.62851014104E+01  0.13664340932E+04  0.13664854455E+04  0.10000000000E+02 0.  0.
</event>
<event>
 5    1  0.1360042E-008  0.3833736E+03  0.7957747E-01  0.3436599E+00
         13   -1    0    0    0    0  0.00000000000E+00  0.00000000000E+00  0.14999999963E+04  0.15000000000E+04  0.10566000000E+00 0. -1.
        994   -1    0    0    0    0 -0.00000000000E+00 -0.00000000000E+00  0.11368683772E-12  0.17120000000E+03  0.17120000000E+03 0.  0.
         13    1    1    2    0    0  0.11119048963E+02 -0.19275639702E+02  0.10587710976E+03  0.10819037421E+03  0.10566000000E+00 0. -1.
        994    1    1    2    0    0  0.13656892403E+01  0.84586618655E+01  0.26825078837E+01  0.17143526451E+03  0.17120000000E+03 0.  0.
        998    1    1    2    0    0 -0.12484738203E+02  0.10816977836E+02  0.13914403786E+04  0.13915743613E+04  0.10000000000E+02 0. -1.
</event>
<event>
 5    1  0.1360042E-008  0.3706333E+03  0.7957747E-01  0.3492985E+00
         13   -1    0    0    0    0  0.00000000000E+00  0.00000000000E+00  0.14999999963E+04  0.15000000000E+04  0.10566000000E+00 0. -1.
        994   -1    0    0    0    0 -0.00000000000E+00 -0.00000000000E+00  0.11368683772E-12  0.17120000000E+03  0.17120000000E+03 0.  0.
         13    1    1    2    0    0 -0.30863216870E+02  0.28216771010E+02  0.77393242598E+02  0.87968457334E+02  0.10566000000E+00 0. -1.
        994    1    1    2    0    0  0.38161323305E+02  0.25807590753E+02  0.18747370193E+02  0.17827849625E+03  0.17120000000E+03 0.  0.
        998    1    1    2    0    0 -0.72981064352E+01 -0.54024361763E+02  0.14038593835E+04  0.14049530464E+04  0.10000000000E+02 0. -1.
</event>
<event>
 5    1  0.1360042E-008  0.3815437E+03  0.7957747E-01  0.3444464E+00
         13   -1    0    0    0    0  0.00000000000E+00  0.00000000000E+00  0.14999999963E+04  0.15000000000E+04  0.10566000000E+00 0.  1.
        994   -1    0    0    0    0 -0.00000000000E+00 -0.00000000000E+00  0.11368683772E-12  0.17120000000E+03  0.17120000000E+03 0.  0.
         13    1    1    2    0    0 -0.22534571843E+02  0.13770571181E+02  0.96275980111E+02  0.99832414922E+02  0.10566000000E+00 0.  1.
        994    1    1    2    0    0  0.37947466412E+02  0.70025699633E+01  0.83242678478E+01  0.17569228676E+03  0.17120000000E+03 0.  0.
        998    1    1    2    0    0 -0.15412894569E+02 -0.20773141144E+02  0.13953997483E+04  0.13956752983E+04  0.10000000000E+02 0.  1.
</event>
<event>
 5    1  0.1360042E-008  0.3730144E+03  0.7957747E-01  0.3482151E+00
         13   -1    0    0    0    0  0.00000000000E+00  0.00000000000E+00  0.14999999963E+04  0.15000000000E+04  0.10566000000E+00 0.  1.
        994   -1    0    0    0    0 -0.00000000000E+00 -0.00000000000E+00  0.11368683772E-12  0.17120000000E+03  0.17120000000E+03 0.  0.
         13    1    1    2    0    0  0.82109603706E+02 -0.19644513885E+02  0.36032389181E+03  0.37008270983E+03  0.10566000000E+00 0.  1.
        994    1    1    2    0    0 -0.79529974882E+02  0.12148908425E+02  0.30187201591E+02  0.19155500521E+03  0.17120000000E+03 0.  0.
        998    1    1    2    0    0 -0.25796288246E+01  0.74956054605E+01  0.11094889029E+04  0.11095622850E+04  0.10000000000E+02 0.  1.
</event>
<event>
 5    1  0.1360042E-008  0.3767292E+03  0.7957747E-01  0.3465525E+00
         13   -1    0    0    0    0  0.00000000000E+00  0.00000000000E+00  0.14999999963E+04  0.15000000000E+04  0.10566000000E+00 0. -1.
        994   -1    0    0    0    0 -0.00000000000E+00 -0.00000000000E+00  0.11368683772E-12  0.17120000000E+03  0.17120000000E+03 0.  0.
         13    1    1    2    0    0 -0.62425267206E+01 -0.13940303317E+02  0.17418502975E+02  0.23167144976E+02  0.10566000000E+00 0. -1.
        994    1    1    2    0    0 -0.14999964080E+01  0.17998639997E+02  0.68965524209E+01  0.17228814082E+03  0.17120000000E+03 0.  0.
        998    1    1    2    0    0  0.77425231286E+01 -0.40583366805E+01  0.14756849409E+04  0.14757447142E+04  0.10000000000E+02 0. -1.
</event>
<event>
 5    1  0.1360042E-008  0.3795377E+03  0.7957747E-01  0.3453174E+00
         13   -1    0    0    0    0  0.00000000000E+00  0.00000000000E+00  0.14999999963E+04  0.15000000000E+04  0.10566000000E+00 0. -1.
        994   -1    0    0    0    0 -0.00000000000E+00 -0.00000000000E+00  0.11368683772E-12  0.17120000000E+03  0.17120000000E+03 0.  0.
         13    1    1    2    0    0 -0.95861605271E+01  0.13872857492E+02  0.30598186980E+02  0.34937241722E+02  0.10566000000E+00 0. -1.
        994    1    1    2    0    0  0.92826477392E+01 -0.10363778916E+02  0.50150459602E+01  0.17183761564E+03  0.17120000000E+03 0.  0.
        998    1    1    2    0    0  0.30351278783E+00 -0.35090785759E+01  0.14643867633E+04  0.14644251426E+04  0.10000000000E+02 0. -1.
</event>
<event>
 5    1  0.1360042E-008  0.3826498E+03  0.7957747E-01  0.3439701E+00
         13   -1    0    0    0    0  0.00000000000E+00  0.00000000000E+00  0.14999999963E+04  0.15000000000E+04  0.10566000000E+00 0.  1.
        994   -1    0    0    0    0 -0.00000000000E+00 -0.00000000000E+00  0.11368683772E-12  0.17120000000E+03  0.17120000000E+03 0.  0.
         13    1    1    2    0    0 -0.27100661628E+02  0.30139567942E+01  0.12834879251E+03  0.13121338918E+03  0.10566000000E+00 0.  1.
        994    1    1    2    0    0  0.19368994829E+02 -0.10500880165E+02  0.44117874339E+01  0.17266826667E+03  0.17120000000E+03 0.  0.
        998    1    1    2    0    0  0.77316667986E+01  0.74869233711E+01  0.13672394163E+04  0.13673183442E+04  0.10000000000E+02 0.  1.
</event>
<event>
 5    1  0.2879634E-008  0.3862666E+03  0.7957747E-01  0.3424318E+00
         13   -1    0    0    0    0  0.00000000000E+00  0.00000000000E+00  0.14999999963E+04  0.15000000000E+04  0.10566000000E+00 0.  1.
        994   -1    0    0    0    0 -0.00000000000E+00 -0.00000000000E+00  0.11368683772E-12  0.17120000000E+03  0.17120000000E+03 0.  0.
         13    1    1    2    0    0 -0.85211539300E+01  0.83338772241E+01  0.70398461273E+02  0.71400406774E+02  0.10566000000E+00 0.  1.
        994    1    1    2    0    0  0.89556493496E+01 -0.60499339617E+01  0.13852331798E+01  0.17154639089E+03  0.17120000000E+03 0.  0.
        998    1    1    2    0    0 -0.43449541959E+00 -0.22839432624E+01  0.14282163018E+04  0.14282532023E+04  0.10000000000E+02 0.  1.
</event>
<event>
 5    1  0.1360042E-008  0.3851966E+03  0.7957747E-01  0.3428839E+00
         13   -1    0    0    0    0  0.00000000000E+00  0.00000000000E+00  0.14999999963E+04  0.15000000000E+04  0.10566000000E+00 0.  1.
        994   -1    0    0    0    0 -0.00000000000E+00 -0.00000000000E+00  0.11368683772E-12  0.17120000000E+03  0.17120000000E+03 0.  0.
         13    1    1    2    0    0  0.79311655566E+01 -0.10450953669E+02  0.54088673525E+02  0.55657179118E+02  0.10566000000E+00 0.  1.
        994    1    1    2    0    0 -0.12041429452E+02  0.10115399088E+02  0.23458196086E+01  0.17193679127E+03  0.17120000000E+03 0.  0.
        998    1    1    2    0    0  0.41102638957E+01  0.33555458113E+00  0.14435655031E+04  0.14436060296E+04  0.10000000000E+02 0.  1.
</event>
<event>
 5    1  0.1360042E-008  0.3797148E+03  0.7957747E-01  0.3452401E+00
         13   -1    0    0    0    0  0.00000000000E+00  0.00000000000E+00  0.14999999963E+04  0.15000000000E+04  0.10566000000E+00 0.  1.
        994   -1    0    0    0    0 -0.00000000000E+00 -0.00000000000E+00  0.11368683772E-12  0.17120000000E+03  0.17120000000E+03 0.  0.
         13    1    1    2    0    0 -0.59205547763E+02  0.49408054575E+02  0.45224671606E+03  0.45877397060E+03  0.10566000000E+00 0.  1.
        994    1    1    2    0    0  0.62687745658E+02 -0.53591086756E+02  0.27383027560E+02  0.19199226087E+03  0.17120000000E+03 0.  0.
        998    1    1    2    0    0 -0.34821978949E+01  0.41830321808E+01  0.10203702527E+04  0.10204337685E+04  0.10000000000E+02 0.  0.
</event>
<event>
 5    1  0.1360042E-008  0.3768764E+03  0.7957747E-01  0.3464873E+00
         13   -1    0    0    0    0  0.00000000000E+00  0.00000000000E+00  0.14999999963E+04  0.15000000000E+04  0.10566000000E+00 0. -1.
        994   -1    0    0    0    0 -0.00000000000E+00 -0.00000000000E+00  0.11368683772E-12  0.17120000000E+03  0.17120000000E+03 0.  0.
         13    1    1    2    0    0  0.47078927525E-01 -0.31931005306E+02  0.84654994288E+02  0.90476906104E+02  0.10566000000E+00 0. -1.
        994    1    1    2    0    0 -0.24237279656E+02  0.26759198283E+02  0.10133970960E+02  0.17525877378E+03  0.17120000000E+03 0.  0.
        998    1    1    2    0    0  0.24190200728E+02  0.51718070229E+01  0.14052110310E+04  0.14054643201E+04  0.10000000000E+02 0. -1.
</event>
<event>
 5    1  0.1360042E-008  0.3844203E+03  0.7957747E-01  0.3432135E+00
         13   -1    0    0    0    0  0.00000000000E+00  0.00000000000E+00  0.14999999963E+04  0.15000000000E+04  0.10566000000E+00 0. -1.
        994   -1    0    0    0    0 -0.00000000000E+00 -0.00000000000E+00  0.11368683772E-12  0.17120000000E+03  0.17120000000E+03 0.  0.
         13    1    1    2    0    0 -0.94063087333E+01  0.11524762210E+02  0.62165101613E+02  0.63920339568E+02  0.10566000000E+00 0. -1.
        994    1    1    2    0    0 -0.41639045112E+01  0.16054594100E+01  0.19838539269E+01  0.17126964494E+03  0.17120000000E+03 0.  0.
        998    1    1    2    0    0  0.13570213244E+02 -0.13130221620E+02  0.14358510407E+04  0.14360100155E+04  0.10000000000E+02 0. -1.
</event>
<event>
 5    1  0.1360042E-008  0.3790730E+03  0.7957747E-01  0.3455205E+00
         13   -1    0    0    0    0  0.00000000000E+00  0.00000000000E+00  0.14999999963E+04  0.15000000000E+04  0.10566000000E+00 0.  1.
        994   -1    0    0    0    0 -0.00000000000E+00 -0.00000000000E+00  0.11368683772E-12  0.17120000000E+03  0.17120000000E+03 0.  0.
         13    1    1    2    0    0 -0.14214680436E+02  0.52523509067E+01  0.23075118226E+02  0.27606458938E+02  0.10566000000E+00 0.  1.
        994    1    1    2    0    0  0.92989683346E+01 -0.36789370296E+01  0.49372325751E+01  0.17156287960E+03  0.17120000000E+03 0.  0.
        998    1    1    2    0    0  0.49157121010E+01 -0.15734138772E+01  0.14719876455E+04  0.14720306615E+04  0.10000000000E+02 0.  1.
</event>
<event>
 5    1  0.1360042E-008  0.3842330E+03  0.7957747E-01  0.3432932E+00
         13   -1    0    0    0    0  0.00000000000E+00  0.00000000000E+00  0.14999999963E+04  0.15000000000E+04  0.10566000000E+00 0.  1.
        994   -1    0    0    0    0 -0.00000000000E+00 -0.00000000000E+00  0.11368683772E-12  0.17120000000E+03  0.17120000000E+03 0.  0.
         13    1    1    2    0    0  0.15170336607E+02  0.13304973517E+01  0.56049995027E+02  0.58082032011E+02  0.10566000000E+00 0.  1.
        994    1    1    2    0    0 -0.15253864239E+02  0.10665702522E+02  0.31543840207E+01  0.17223770703E+03  0.17120000000E+03 0.  0.
        998    1    1    2    0    0  0.83527631740E-01 -0.11996199874E+02  0.14407956172E+04  0.14408802610E+04  0.10000000000E+02 0.  1.
</event>
<event>
 5    1  0.1360042E-008  0.3830676E+03  0.7957747E-01  0.3437909E+00
         13   -1    0    0    0    0  0.00000000000E+00  0.00000000000E+00  0.14999999963E+04  0.15000000000E+04  0.10566000000E+00 0.  1.
        994   -1    0    0    0    0 -0.00000000000E+00 -0.00000000000E+00  0.11368683772E-12  0.17120000000E+03  0.17120000000E+03 0.  0.
         13    1    1    2    0    0  0.72585707953E+01  0.15431977176E+02  0.57164120900E+02  0.59653840210E+02  0.10566000000E+00 0.  1.
        994    1    1    2    0    0 -0.15493156410E+01 -0.41793747967E+01  0.26583529327E+01  0.17127864547E+03  0.17120000000E+03 0.  0.
        998    1    1    2    0    0 -0.57092551542E+01 -0.11252602379E+02  0.14401775224E+04  0.14402675143E+04  0.10000000000E+02 0.  1.
</event>
<event>
 5    1  0.1360042E-008  0.3821869E+03  0.7957747E-01  0.3441691E+00
         13   -1    0    0    0    0  0.00000000000E+00  0.00000000000E+00  0.14999999963E+04  0.15000000000E+04  0.10566000000E+00 0. -1.
        994   -1    0    0    0    0 -0.00000000000E+00 -0.00000000000E+00  0.11368683772E-12  0.17120000000E+03  0.17120000000E+03 0.  0.
         13    1    1    2    0    0 -0.15814717865E+02 -0.34038899663E+02  0.21257493264E+03  0.21586307036E+03  0.10566000000E+00 0. -1.
        994    1    1    2    0    0  0.99471801769E+01  0.30008575786E+02  0.63574984634E+01  0.17421055881E+03  0.17120000000E+03 0.  0.
        998    1    1    2    0    0  0.58675376883E+01  0.40303238768E+01  0.12810675652E+04  0.12811263708E+04  0.10000000000E+02 0. -1.
</event>
<event>
 5    1  0.1360042E-008  0.3815892E+03  0.7957747E-01  0.3444268E+00
         13   -1    0    0    0    0  0.00000000000E+00  0.00000000000E+00  0.14999999963E+04  0.15000000000E+04  0.10566000000E+00 0.  1.
        994   -1    0    0    0    0 -0.00000000000E+00 -0.00000000000E+00  0.11368683772E-12  0.17120000000E+03  0.17120000000E+03 0.  0.
         13    1    1    2    0    0 -0.23643608497E+02 -0.11075594791E+01  0.82410197301E+02  0.85742047410E+02  0.10566000000E+00 0.  1.
        994    1    1    2    0    0  0.15848819532E+02  0.39803699205E+01  0.42215453604E+01  0.17202990981E+03  0.17120000000E+03 0.  0.
        998    1    1    2    0    0  0.77947889649E+01 -0.28728104413E+01  0.14133682536E+04  0.14134280428E+04  0.10000000000E+02 0.  1.
</event>
<event>
 5    1  0.1360042E-008  0.3782631E+03  0.7957747E-01  0.3458756E+00
         13   -1    0    0    0    0  0.00000000000E+00  0.00000000000E+00  0.14999999963E+04  0.15000000000E+04  0.10566000000E+00 0. -1.
        994   -1    0    0    0    0 -0.00000000000E+00 -0.00000000000E+00  0.11368683772E-12  0.17120000000E+03  0.17120000000E+03 0.  0.
         13    1    1    2    0    0 -0.72968860003E+02  0.48827295048E+01  0.39168377598E+03  0.39845261589E+03  0.10566000000E+00 0. -1.
        994    1    1    2    0    0  0.73592387116E+02  0.24387469740E+00  0.23443438387E+02  0.18781622326E+03  0.17120000000E+03 0.  0.
        998    1    1    2    0    0 -0.62352711224E+00 -0.51266042022E+01  0.10848727819E+04  0.10849311608E+04  0.10000000000E+02 0. -1.
</event>
<event>
 5    1  0.1360042E-008  0.3838582E+03  0.7957747E-01  0.3434529E+00
         13   -1    0    0    0    0  0.00000000000E+00  0.00000000000E+00  0.14999999963E+04  0.15000000000E+04  0.10566000000E+00 0.  1.
        994   -1    0    0    0    0 -0.00000000000E+00 -0.00000000000E+00  0.11368683772E-12  0.17120000000E+03  0.17120000000E+03 0.  0.
         13    1    1    2    0    0  0.18107322361E+02  0.12606120961E+02  0.10928531662E+03  0.11149027312E+03  0.10566000000E+00 0.  1.
        994    1    1    2    0    0 -0.12275107871E+02 -0.84886380894E+01  0.29336630071E+01  0.17187431928E+03  0.17120000000E+03 0.  0.
        998    1    1    2    0    0 -0.58322144900E+01 -0.41174828717E+01  0.13877810167E+04  0.13878354076E+04  0.10000000000E+02 0.  1.
</event>
<event>
 5    1  0.1791804E-008  0.3858583E+03  0.7957747E-01  0.3426040E+00
         13   -1    0    0    0    0  0.00000000000E+00  0.00000000000E+00  0.14999999963E+04  0.15000000000E+04  0.10566000000E+00 0. -1.
        994   -1    0    0    0    0 -0.00000000000E+00 -0.00000000000E+00  0.11368683772E-12  0.17120000000E+03  0.17120000000E+03 0.  0.
         13    1    1    2    0    0  0.32845697712E+01  0.10545493734E+02  0.52894507519E+02  0.54035506164E+02  0.10566000000E+00 0. -1.
        994    1    1    2    0    0 -0.41736556195E+01 -0.11106248081E+01  0.12657785167E+01  0.17125914599E+03  0.17120000000E+03 0.  0.
        998    1    1    2    0    0  0.88908584833E+00 -0.94348689258E+01  0.14458397102E+04  0.14459053478E+04  0.10000000000E+02 0. -1.
</event>
<event>
 5    1  0.1360042E-008  0.3839072E+03  0.7957747E-01  0.3434320E+00
         13   -1    0    0    0    0  0.00000000000E+00  0.00000000000E+00  0.14999999963E+04  0.15000000000E+04  0.10566000000E+00 0.  1.
        994   -1    0    0    0    0 -0.00000000000E+00 -0.00000000000E+00  0.11368683772E-12  0.17120000000E+03  0.17120000000E+03 0.  0.
         13    1    1    2    0    0  0.13796659583E+02  0.84326118550E+01  0.57530035566E+02  0.59759291450E+02  0.10566000000E+00 0.  1.
        994    1    1    2    0    0 -0.15083682072E+02 -0.90730792161E+01  0.31969218111E+01  0.17213221238E+03  0.17120000000E+03 0.  0.
        998    1    1    2    0    0  0.12870224891E+01  0.64046736105E+00  0.14392730389E+04  0.14393084962E+04  0.10000000000E+02 0.  0.
</event>
<event>
 5    1  0.1360042E-008  0.3861872E+03  0.7957747E-01  0.3424653E+00
         13   -1    0    0    0    0  0.00000000000E+00  0.00000000000E+00  0.14999999963E+04  0.15000000000E+04  0.10566000000E+00 0. -1.
        994   -1    0    0    0    0 -0.00000000000E+00 -0.00000000000E+00  0.11368683772E-12  0.17120000000E+03  0.17120000000E+03 0.  0.
         13    1    1    2    0    0 -0.10599972740E+02  0.22302790201E+00  0.56021574620E+02  0.57016113078E+02  0.10566000000E+00 0. -1.
        994    1    1    2    0    0  0.43352950431E+01  0.87105478199E+01  0.13520472011E+01  0.17148159218E+03  0.17120000000E+03 0.  0.
        998    1    1    2    0    0  0.62646776971E+01 -0.89335757219E+01  0.14426263745E+04  0.14427022947E+04  0.10000000000E+02 0. -1.
</event>
<event>
 5    1  0.1360042E-008  0.3704335E+03  0.7957747E-01  0.3493901E+00
         13   -1    0    0    0    0  0.00000000000E+00  0.00000000000E+00  0.14999999963E+04  0.15000000000E+04  0.10566000000E+00 0. -1.
        994   -1    0    0    0    0 -0.00000000000E+00 -0.00000000000E+00  0.11368683772E-12  0.17120000000E+03  0.17120000000E+03 0.  0.
         13    1    1    2    0    0  0.11952612267E+03  0.36114538028E+01  0.52071701523E+03  0.53427123984E+03  0.10566000000E+00 0. -1.
        994    1    1    2    0    0 -0.93548697957E+02  0.72905297890E+01  0.42667216689E+02  0.19983603803E+03  0.17120000000E+03 0.  0.
        998    1    1    2    0    0 -0.25977424715E+02 -0.10901983592E+02  0.93661576436E+03  0.93709272214E+03  0.10000000000E+02 0. -1.
</event>
<event>
 5    1  0.1360042E-008  0.3711629E+03  0.7957747E-01  0.3490563E+00
         13   -1    0    0    0    0  0.00000000000E+00  0.00000000000E+00  0.14999999963E+04  0.15000000000E+04  0.10566000000E+00 0.  1.
        994   -1    0    0    0    0 -0.00000000000E+00 -0.00000000000E+00  0.11368683772E-12  0.17120000000E+03  0.17120000000E+03 0.  0.
         13    1    1    2    0    0  0.12432616121E+03  0.59824028147E+02  0.59830447424E+03  0.61400664798E+03  0.10566000000E+00 0.  1.
        994    1    1    2    0    0 -0.10418599011E+03 -0.48573257238E+02  0.59502965458E+02  0.21462554543E+03  0.17120000000E+03 0.  0.
        998    1    1    2    0    0 -0.20140171099E+02 -0.11250770910E+02  0.84219255658E+03  0.84256780659E+03  0.10000000000E+02 0.  1.
</event>
<event>
 5    1  0.1360042E-008  0.3830404E+03  0.7957747E-01  0.3438026E+00
         13   -1    0    0    0    0  0.00000000000E+00  0.00000000000E+00  0.14999999963E+04  0.15000000000E+04  0.10566000000E+00 0. -1.
        994   -1    0    0    0    0 -0.00000000000E+00 -0.00000000000E+00  0.11368683772E-12  0.17120000000E+03  0.17120000000E+03 0.  0.
         13    1    1    2    0    0  0.15843308734E+02 -0.23021961288E+02  0.13963516305E+03  0.14240439269E+03  0.10566000000E+00 0. -1.
        994    1    1    2    0    0 -0.23989616322E+02  0.14760893507E+02  0.52364475225E+01  0.17358066151E+03  0.17120000000E+03 0.  0.
        998    1    1    2    0    0  0.81463075882E+01  0.82610677807E+01  0.13551283857E+04  0.13552149458E+04  0.10000000000E+02 0. -1.
</event>
<event>
 5    1  0.1360042E-008  0.3784995E+03  0.7957747E-01  0.3457718E+00
         13   -1    0    0    0    0  0.00000000000E+00  0.00000000000E+00  0.14999999963E+04  0.15000000000E+04  0.10566000000E+00 0. -1.
        994   -1    0    0    0    0 -0.00000000000E+00 -0.00000000000E+00  0.11368683772E-12  0.17120000000E+03  0.17120000000E+03 0.  0.
         13    1    1    2    0    0 -0.58844146127E+02 -0.20579691176E+01  0.29856081049E+03  0.30431141532E+03  0.10566000000E+00 0. -1.
        994    1    1    2    0    0  0.53169418849E+02  0.45908098171E+01  0.14521096920E+02  0.17991210324E+03  0.17120000000E+03 0.  0.
        998    1    1    2    0    0  0.56747272779E+01 -0.25328406995E+01  0.11869180889E+04  0.11869764814E+04  0.10000000000E+02 0.  0.
</event>
<event>
 5    1  0.1360042E-008  0.3852966E+03  0.7957747E-01  0.3428415E+00
         13   -1    0    0    0    0  0.00000000000E+00  0.00000000000E+00  0.14999999963E+04  0.15000000000E+04  0.10566000000E+00 0. -1.
        994   -1    0    0    0    0 -0.00000000000E+00 -0.00000000000E+00  0.11368683772E-12  0.17120000000E+03  0.17120000000E+03 0.  0.
         13    1    1    2    0    0  0.65043774250E+01  0.11297046273E+02  0.60074272646E+02  0.61472429415E+02  0.10566000000E+00 0. -1.
        994    1    1    2    0    0  0.11642669390E+02 -0.89765779842E+01  0.21933825820E+01  0.17184406196E+03  0.17120000000E+03 0.  0.
        998    1    1    2    0    0 -0.18147046815E+02 -0.23204682884E+01  0.14377323411E+04  0.14378835086E+04  0.10000000000E+02 0. -1.
</event>
<event>
 5    1  0.1360042E-008  0.3774771E+03  0.7957747E-01  0.3462218E+00
         13   -1    0    0    0    0  0.00000000000E+00  0.00000000000E+00  0.14999999963E+04  0.15000000000E+04  0.10566000000E+00 0.  1.
        994   -1    0    0    0    0 -0.00000000000E+00 -0.00000000000E+00  0.11368683772E-12  0.17120000000E+03  0.17120000000E+03 0.  0.
         13    1    1    2    0    0 -0.30801308990E+02  0.50757415663E+02  0.21953555263E+03  0.22742230742E+03  0.10566000000E+00 0.  1.
        994    1    1    2    0    0  0.59792277629E+02 -0.72967740144E+02  0.36025591613E+02  0.19876290101E+03  0.17120000000E+03 0.  0.
        998    1    1    2    0    0 -0.28990968639E+02  0.22210324481E+02  0.12444388520E+04  0.12450147916E+04  0.10000000000E+02 0.  1.
</event>
<event>
 5    1  0.1360042E-008  0.3808910E+03  0.7957747E-01  0.3447288E+00
         13   -1    0    0    0    0  0.00000000000E+00  0.00000000000E+00  0.14999999963E+04  0.15000000000E+04  0.10566000000E+00 0. -1.
        994   -1    0    0    0    0 -0.00000000000E+00 -0.00000000000E+00  0.11368683772E-12  0.17120000000E+03  0.17120000000E+03 0.  0.
         13    1    1    2    0    0 -0.10655656648E+02  0.39166097086E+01  0.16011870146E+02  0.19628397790E+02  0.10566000000E+00 0. -1.
        994    1    1    2    0    0  0.63643917613E+01 -0.12990681887E+01  0.38247085635E+01  0.17136587016E+03  0.17120000000E+03 0.  0.
        998    1    1    2    0    0  0.42912648866E+01 -0.26175415198E+01  0.14801634176E+04  0.14802057320E+04  0.10000000000E+02 0. -1.
</event>
<event>
 5    1  0.1360042E-008  0.3727896E+03  0.7957747E-01  0.3483168E+00
         13   -1    0    0    0    0  0.00000000000E+00  0.00000000000E+00  0.14999999963E+04  0.15000000000E+04  0.10566000000E+00 0.  1.
        994   -1    0    0    0    0 -0.00000000000E+00 -0.00000000000E+00  0.11368683772E-12  0.17120000000E+03  0.17120000000E+03 0.  0.
         13    1    1    2    0    0 -0.37806445878E+02  0.53291524834E+02  0.29748972380E+03  0.30458079536E+03  0.10566000000E+00 0.  1.
        994    1    1    2    0    0 -0.49451391357E+01 -0.34036282478E+02  0.11880196027E+02  0.17502428970E+03  0.17120000000E+03 0.  0.
        998    1    1    2    0    0  0.42751585014E+02 -0.19255242356E+02  0.11906300764E+04  0.11915949149E+04  0.10000000000E+02 0.  1.
</event>
<event>
 5    1  0.1360042E-008  0.3876980E+03  0.7957747E-01  0.3418310E+00
         13   -1    0    0    0    0  0.00000000000E+00  0.00000000000E+00  0.14999999963E+04  0.15000000000E+04  0.10566000000E+00 0. -1.
        994   -1    0    0    0    0 -0.00000000000E+00 -0.00000000000E+00  0.11368683772E-12  0.17120000000E+03  0.17120000000E+03 0.  0.
         13    1    1    2    0    0 -0.46014198599E+02  0.40074548921E+02  0.83494512805E+02  0.10341479960E+03  0.10566000000E+00 0. -1.
        994    1    1    2    0    0  0.43691475320E+02 -0.14342294281E+02  0.28549410197E+02  0.17955265312E+03  0.17120000000E+03 0.  0.
        998    1    1    2    0    0  0.23227232783E+01 -0.25732254641E+02  0.13879560733E+04  0.13882325473E+04  0.10000000000E+02 0. -1.
</event>
<event>
 5    1  0.1360042E-008  0.3824573E+03  0.7957747E-01  0.3440528E+00
         13   -1    0    0    0    0  0.00000000000E+00  0.00000000000E+00  0.14999999963E+04  0.15000000000E+04  0.10566000000E+00 0. -1.
        994   -1    0    0    0    0 -0.00000000000E+00 -0.00000000000E+00  0.11368683772E-12  0.17120000000E+03  0.17120000000E+03 0.  0.
         13    1    1    2    0    0 -0.21827414560E+01  0.11263286866E+02  0.21952973137E+02  0.24770348904E+02  0.10566000000E+00 0. -1.
        994    1    1    2    0    0 -0.74847348726E+01 -0.44009227053E+01  0.31478565718E+01  0.17144893811E+03  0.17120000000E+03 0.  0.
        998    1    1    2    0    0  0.96674763286E+01 -0.68623641604E+01  0.14748991666E+04  0.14749807130E+04  0.10000000000E+02 0. -1.
</event>
<event>
 5    1  0.1360042E-008  0.3765396E+03  0.7957747E-01  0.3466366E+00
         13   -1    0    0    0    0  0.00000000000E+00  0.00000000000E+00  0.14999999963E+04  0.15000000000E+04  0.10566000000E+00 0. -1.
        994   -1    0    0    0    0 -0.00000000000E+00 -0.00000000000E+00  0.11368683772E-12  0.17120000000E+03  0.17120000000E+03 0.  0.
         13    1    1    2    0    0  0.46916983569E+02 -0.19707433887E+02  0.18746721016E+03  0.19425126086E+03  0.10566000000E+00 0. -1.
        994    1    1    2    0    0 -0.65196275349E+02 -0.11080574430E+02  0.20825338015E+02  0.18470643777E+03  0.17120000000E+03 0.  0.
        998    1    1    2    0    0  0.18279291780E+02  0.30788008317E+02  0.12917074481E+04  0.12922423014E+04  0.10000000000E+02 0. -1.
</event>
<event>
 5    1  0.1360042E-008  0.3824400E+03  0.7957747E-01  0.3440603E+00
         13   -1    0    0    0    0  0.00000000000E+00  0.00000000000E+00  0.14999999963E+04  0.15000000000E+04  0.10566000000E+00 0. -1.
        994   -1    0    0    0    0 -0.00000000000E+00 -0.00000000000E+00  0.11368683772E-12  0.17120000000E+03  0.17120000000E+03 0.  0.
         13    1    1    2    0    0 -0.12446145011E+02  0.13965481427E+02  0.56112672656E+02  0.59148832565E+02  0.10566000000E+00 0. -1.
        994    1    1    2    0    0  0.16126239676E+02 -0.18081619299E+02  0.48555282946E+01  0.17297403481E+03  0.17120000000E+03 0.  0.
        998    1    1    2    0    0 -0.36800946654E+01  0.41161378721E+01  0.14390317953E+04  0.14390771326E+04  0.10000000000E+02 0. -1.
</event>
<event>
 5    1  0.1360042E-008  0.3733927E+03  0.7957747E-01  0.3480442E+00
         13   -1    0    0    0    0  0.00000000000E+00  0.00000000000E+00  0.14999999963E+04  0.15000000000E+04  0.10566000000E+00 0.  1.
        994   -1    0    0    0    0 -0.00000000000E+00 -0.00000000000E+00  0.11368683772E-12  0.17120000000E+03  0.17120000000E+03 0.  0.
         13    1    1    2    0    0  0.28441030374E+02  0.41997111876E+02  0.18738948925E+03  0.19413263883E+03  0.10566000000E+00 0.  1.
        994    1    1    2    0    0 -0.14382754752E+02 -0.37026143769E+01  0.82606317331E+01  0.17204142241E+03  0.17120000000E+03 0.  0.
        998    1    1    2    0    0 -0.14058275622E+02 -0.38294497499E+02  0.13043498753E+04  0.13050259388E+04  0.10000000000E+02 0.  1.
</event>
<event>
 5    1  0.1360042E-008  0.3737598E+03  0.7957747E-01  0.3478788E+00
         13   -1    0    0    0    0  0.00000000000E+00  0.00000000000E+00  0.14999999963E+04  0.15000000000E+04  0.10566000000E+00 0. -1.
        994   -1    0    0    0    0 -0.00000000000E+00 -0.00000000000E+00  0.11368683772E-12  0.17120000000E+03  0.17120000000E+03 0.  0.
         13    1    1    2    0    0 -0.21868895815E+02 -0.10808349152E+02  0.38935590860E+02  0.45946277491E+02  0.10566000000E+00 0. -1.
        994    1    1    2    0    0 -0.33925631069E+00  0.12546057685E+02  0.78548529950E+01  0.17183904496E+03  0.17120000000E+03 0.  0.
        998    1    1    2    0    0  0.22208152126E+02 -0.17377085333E+01  0.14532095524E+04  0.14534146775E+04  0.10000000000E+02 0. -1.
</event>
<event>
 5    1  0.1360042E-008  0.3876152E+03  0.7957747E-01  0.3418656E+00
         13   -1    0    0    0    0  0.00000000000E+00  0.00000000000E+00  0.14999999963E+04  0.15000000000E+04  0.10566000000E+00 0. -1.
        994   -1    0    0    0    0 -0.00000000000E+00 -0.00000000000E+00  0.11368683772E-12  0.17120000000E+03  0.17120000000E+03 0.  0.
         13    1    1    2    0    0  0.55344209425E+02 -0.53389999108E+01  0.99369683015E+02  0.11386760515E+03  0.10566000000E+00 0. -1.
        994    1    1    2    0    0  0.83922993708E+02 -0.14948755761E+03  0.14049691655E+03  0.28006860287E+03  0.17120000000E+03 0.  0.
        998    1    1    2    0    0 -0.13926720313E+03  0.15482655752E+03  0.12601333967E+04  0.12772637920E+04  0.10000000000E+02 0. -1.
</event>
<event>
 5    1  0.1360042E-008  0.3772614E+03  0.7957747E-01  0.3463170E+00
         13   -1    0    0    0    0  0.00000000000E+00  0.00000000000E+00  0.14999999963E+04  0.15000000000E+04  0.10566000000E+00 0.  1.
        994   -1    0    0    0    0 -0.00000000000E+00 -0.00000000000E+00  0.11368683772E-12  0.17120000000E+03  0.17120000000E+03 0.  0.
         13    1    1    2    0    0  0.38229181267E+01 -0.33026116966E+02  0.94454503225E+02  0.10013492622E+03  0.10566000000E+00 0.  1.
        994    1    1    2    0    0  0.40282235836E+01  0.29622437285E+02  0.85428044641E+01  0.17400038760E+03  0.17120000000E+03 0.  0.
        998    1    1    2    0    0 -0.78511417104E+01  0.34036796806E+01  0.13970026886E+04  0.13970646862E+04  0.10000000000E+02 0.  1.
</event>
<event>
 5    1  0.1360042E-008  0.3816353E+03  0.7957747E-01  0.3444069E+00
         13   -1    0    0    0    0  0.00000000000E+00  0.00000000000E+00  0.14999999963E+04  0.15000000000E+04  0.10566000000E+00 0.  1.
        994   -1    0    0    0    0 -0.00000000000E+00 -0.00000000000E+00  0.11368683772E-12  0.17120000000E+03  0.17120000000E+03 0.  0.
         13    1    1    2    0    0 -0.23275935036E+02  0.30688606354E+01  0.78475727603E+02  0.81912380287E+02  0.10566000000E+00 0.  1.
        994    1    1    2    0    0  0.22804464239E+02 -0.97922543824E+01  0.53605422830E+01  0.17307254909E+03  0.17120000000E+03 0.  0.
        998    1    1    2    0    0  0.47147079728E+00  0.67233937470E+01  0.14161637264E+04  0.14162150706E+04  0.10000000000E+02 0.  1.
</event>
<event>
 5    1  0.1360042E-008  0.3971802E+03  0.7957747E-01  0.3379602E+00
         13   -1    0    0    0    0  0.00000000000E+00  0.00000000000E+00  0.14999999963E+04  0.15000000000E+04  0.10566000000E+00 0. -1.
        994   -1    0    0    0    0 -0.00000000000E+00 -0.00000000000E+00  0.11368683772E-12  0.17120000000E+03  0.17120000000E+03 0.  0.
         13    1    1    2    0    0 -0.13298145632E+03  0.10692797067E+02  0.32414025294E+03  0.35052149488E+03  0.10566000000E+00 0. -1.
        994    1    1    2    0    0  0.83583141101E+02 -0.10648151611E+03  0.10118483337E+03  0.24056655057E+03  0.17120000000E+03 0.  0.
        998    1    1    2    0    0  0.49398315215E+02  0.95788719044E+02  0.10746749100E+04  0.10801119545E+04  0.10000000000E+02 0. -1.
</event>
<event>
 5    1  0.1360042E-008  0.3857466E+03  0.7957747E-01  0.3426512E+00
         13   -1    0    0    0    0  0.00000000000E+00  0.00000000000E+00  0.14999999963E+04  0.15000000000E+04  0.10566000000E+00 0. -1.
        994   -1    0    0    0    0 -0.00000000000E+00 -0.00000000000E+00  0.11368683772E-12  0.17120000000E+03  0.17120000000E+03 0.  0.
         13    1    1    2    0    0 -0.13198568396E+02  0.69417676538E+01  0.86892420472E+02  0.88162884738E+02  0.10566000000E+00 0. -1.
        994    1    1    2    0    0  0.90213920200E+01 -0.98028407433E+01  0.18424171362E+01  0.17172744598E+03  0.17120000000E+03 0.  0.
        998    1    1    2    0    0  0.41771763755E+01  0.28610730896E+01  0.14112651587E+04  0.14113096693E+04  0.10000000000E+02 0. -1.
</event>
<event>
 5    1  0.1360042E-008  0.3859379E+03  0.7957747E-01  0.3425704E+00
         13   -1    0    0    0    0  0.00000000000E+00  0.00000000000E+00  0.14999999963E+04  0.15000000000E+04  0.10566000000E+00 0.  1.
        994   -1    0    0    0    0 -0.00000000000E+00 -0.00000000000E+00  0.11368683772E-12  0.17120000000E+03  0.17120000000E+03 0.  0.
         13    1    1    2    0    0 -0.10523793690E+02 -0.58976879114E+00  0.41143780663E+02  0.42472578355E+02  0.10566000000E+00 0.  1.
        994    1    1    2    0    0  0.35124989205E+02 -0.10880835100E+02  0.56110817178E+01  0.17519441109E+03  0.17120000000E+03 0.  0.
        998    1    1    2    0    0 -0.24601195515E+02  0.11470603891E+02  0.14532451339E+04  0.14535330106E+04  0.10000000000E+02 0.  1.
</event>
<event>
 5    1  0.1360042E-008  0.3856975E+03  0.7957747E-01  0.3426719E+00
         13   -1    0    0    0    0  0.00000000000E+00  0.00000000000E+00  0.14999999963E+04  0.15000000000E+04  0.10566000000E+00 0. -1.
        994   -1    0    0    0    0 -0.00000000000E+00 -0.00000000000E+00  0.11368683772E-12  0.17120000000E+03  0.17120000000E+03 0.  0.
         13    1    1    2    0    0 -0.91396890878E+01 -0.76773628869E+01  0.56615173832E+02  0.57859872879E+02  0.10566000000E+00 0. -1.
        994    1    1    2    0    0  0.14752074602E+01  0.76381895103E+01  0.14828122988E+01  0.17138307066E+03  0.17120000000E+03 0.  0.
        998    1    1    2    0    0  0.76644816277E+01  0.39173376518E-01  0.14419020101E+04  0.14419570565E+04  0.10000000000E+02 0. -1.
</event>
<event>
 5    1  0.1360042E-008  0.3703799E+03  0.7957747E-01  0.3494147E+00
         13   -1    0    0    0    0  0.00000000000E+00  0.00000000000E+00  0.14999999963E+04  0.15000000000E+04  0.10566000000E+00 0. -1.
        994   -1    0    0    0    0 -0.00000000000E+00 -0.00000000000E+00  0.11368683772E-12  0.17120000000E+03  0.17120000000E+03 0.  0.
         13    1    1    2    0    0 -0.22935923250E+02 -0.15114547160E+02  0.28930304816E+02  0.39893355487E+02  0.10566000000E+00 0. -1.
        994    1    1    2    0    0  0.20383147905E+02  0.14238621604E+02  0.13306981609E+02  0.17350713767E+03  0.17120000000E+03 0.  0.
        998    1    1    2    0    0  0.25527753443E+01  0.87592555666E+00  0.14577627099E+04  0.14577995068E+04  0.10000000000E+02 0. -1.
</event>
<event>
 5    1  0.1360042E-008  0.3694892E+03  0.7957747E-01  0.3498242E+00
         13   -1    0    0    0    0  0.00000000000E+00  0.00000000000E+00  0.14999999963E+04  0.15000000000E+04  0.10566000000E+00 0.  1.
        994   -1    0    0    0    0 -0.00000000000E+00 -0.00000000000E+00  0.11368683772E-12  0.17120000000E+03  0.17120000000E+03 0.  0.
         13    1    1    2    0    0 -0.24929310569E+02  0.21066893997E+02  0.45034447329E+02  0.55618316752E+02  0.10566000000E+00 0.  1.
        994    1    1    2    0    0  0.19724680946E+02 -0.20587262278E+02  0.13511013803E+02  0.17408298567E+03  0.17120000000E+03 0.  0.
        998    1    1    2    0    0  0.52046296230E+01 -0.47963171879E+00  0.14414545351E+04  0.14414986976E+04  0.10000000000E+02 0.  1.
</event>
<event>
 5    1  0.1360042E-008  0.3805689E+03  0.7957747E-01  0.3448685E+00
         13   -1    0    0    0    0  0.00000000000E+00  0.00000000000E+00  0.14999999963E+04  0.15000000000E+04  0.10566000000E+00 0. -1.
        994   -1    0    0    0    0 -0.00000000000E+00 -0.00000000000E+00  0.11368683772E-12  0.17120000000E+03  0.17120000000E+03 0.  0.
         13    1    1    2    0    0  0.80045643464E+02 -0.37920199615E+02  0.19495656078E+03  0.21413387946E+03  0.10566000000E+00 0. -1.
        994    1    1    2    0    0 -0.88106379457E+02  0.34664646555E+02  0.49963481992E+02  0.20191622360E+03  0.17120000000E+03 0.  0.
        998    1    1    2    0    0  0.80607359934E+01  0.32555530599E+01  0.12550799535E+04  0.12551498969E+04  0.10000000000E+02 0. -1.
</event>
<event>
 5    1  0.1360042E-008  0.3812622E+03  0.7957747E-01  0.3445681E+00
         13   -1    0    0    0    0  0.00000000000E+00  0.00000000000E+00  0.14999999963E+04  0.15000000000E+04  0.10566000000E+00 0. -1.
        994   -1    0    0    0    0 -0.00000000000E+00 -0.00000000000E+00  0.11368683772E-12  0.17120000000E+03  0.17120000000E+03 0.  0.
         13    1    1    2    0    0 -0.21825184983E+02 -0.11166502830E+02  0.94770923648E+02  0.97890595146E+02  0.10566000000E+00 0. -1.
        994    1    1    2    0    0 -0.13126651635E+00 -0.11036040268E+02  0.39029747323E+01  0.17159978038E+03  0.17120000000E+03 0.  0.
        998    1    1    2    0    0  0.21956451500E+02  0.22202543098E+02  0.14013260979E+04  0.14017096245E+04  0.10000000000E+02 0. -1.
</event>
<event>
 5    1  0.1360042E-008  0.3752222E+03  0.7957747E-01  0.3472229E+00
         13   -1    0    0    0    0  0.00000000000E+00  0.00000000000E+00  0.14999999963E+04  0.15000000000E+04  0.10566000000E+00 0. -1.
        994   -1    0    0    0    0 -0.00000000000E+00 -0.00000000000E+00  0.11368683772E-12  0.17120000000E+03  0.17120000000E+03 0.  0.
         13    1    1    2    0    0 -0.62957131417E-01  0.13499066359E+02  0.11105629803E+02  0.17480701746E+02  0.10566000000E+00 0. -1.
        994    1    1    2    0    0 -0.70805323999E+01 -0.34113084774E+01  0.67744998088E+01  0.17151415339E+03  0.17120000000E+03 0.  0.
        998    1    1    2    0    0  0.71434895314E+01 -0.10087757881E+02  0.14821198667E+04  0.14822051449E+04  0.10000000000E+02 0. -1.
</event>
<event>
 5    1  0.1360042E-008  0.3734097E+03  0.7957747E-01  0.3480366E+00
         13   -1    0    0    0    0  0.00000000000E+00  0.00000000000E+00  0.14999999963E+04  0.15000000000E+04  0.10566000000E+00 0.  1.
        994   -1    0    0    0    0 -0.00000000000E+00 -0.00000000000E+00  0.11368683772E-12  0.17120000000E+03  0.17120000000E+03 0.  0.
         13    1    1    2    0    0  0.33422186578E+02  0.81868788811E+02  0.22100101603E+03  0.23803571452E+03  0.10566000000E+00 0.  1.
        994    1    1    2    0    0 -0.87595869005E+02 -0.91326848729E+02  0.71802637300E+02  0.22467462760E+03  0.17120000000E+03 0.  0.
        998    1    1    2    0    0  0.54173682427E+02  0.94580599181E+01  0.12071963430E+04  0.12084896579E+04  0.10000000000E+02 0.  1.
</event>
<event>
 5    1  0.1360042E-008  0.3758148E+03  0.7957747E-01  0.3469587E+00
         13   -1    0    0    0    0  0.00000000000E+00  0.00000000000E+00  0.14999999963E+04  0.15000000000E+04  0.10566000000E+00 0.  1.
        994   -1    0    0    0    0 -0.00000000000E+00 -0.00000000000E+00  0.11368683772E-12  0.17120000000E+03  0.17120000000E+03 0.  0.
         13    1    1    2    0    0 -0.17803592070E+03 -0.49616344354E+02  0.71411665224E+03  0.73764569737E+03  0.10566000000E+00 0.  1.
        994    1    1    2    0    0  0.20729191633E+03  0.58224413347E+02  0.18429483453E+03  0.33111032439E+03  0.17120000000E+03 0.  0.
        998    1    1    2    0    0 -0.29255995636E+02 -0.86080689930E+01  0.60158850951E+03  0.60244397823E+03  0.10000000000E+02 0.  1.
</event>
<event>
 5    1  0.1360042E-008  0.3696573E+03  0.7957747E-01  0.3497468E+00
         13   -1    0    0    0    0  0.00000000000E+00  0.00000000000E+00  0.14999999963E+04  0.15000000000E+04  0.10566000000E+00 0. -1.
        994   -1    0    0    0    0 -0.00000000000E+00 -0.00000000000E+00  0.11368683772E-12  0.17120000000E+03  0.17120000000E+03 0.  0.
         13    1    1    2    0    0 -0.53190329903E+01 -0.78726117691E+02  0.24060852412E+03  0.25321644252E+03  0.10566000000E+00 0. -1.
        994    1    1    2    0    0  0.83696133613E+01  0.77973016825E+02  0.32551903121E+02  0.19109921030E+03  0.17120000000E+03 0.  0.
        998    1    1    2    0    0 -0.30505803710E+01  0.75310086594E+00  0.12268395690E+04  0.12268843472E+04  0.10000000000E+02 0. -1.
</event>
<event>
 5    1  0.1360042E-008  0.3799905E+03  0.7957747E-01  0.3451200E+00
         13   -1    0    0    0    0  0.00000000000E+00  0.00000000000E+00  0.14999999963E+04  0.15000000000E+04  0.10566000000E+00 0. -1.
        994   -1    0    0    0    0 -0.00000000000E+00 -0.00000000000E+00  0.11368683772E-12  0.17120000000E+03  0.17120000000E+03 0.  0.
         13    1    1    2    0    0 -0.41513318810E+01 -0.12241494928E+02  0.18129827113E+02  0.22266332200E+02  0.10566000000E+00 0. -1.
        994    1    1    2    0    0  0.25606507872E+01  0.15770664310E+02  0.49917912582E+01  0.17201636191E+03  0.17120000000E+03 0.  0.
        998    1    1    2    0    0  0.15906810939E+01 -0.35291693824E+01  0.14768783779E+04  0.14769173059E+04  0.10000000000E+02 0. -1.
</event>
<event>
 5    1  0.1360042E-008  0.3837629E+03  0.7957747E-01  0.3434936E+00
         13   -1    0    0    0    0  0.00000000000E+00  0.00000000000E+00  0.14999999963E+04  0.15000000000E+04  0.10566000000E+00 0.  1.
        994   -1    0    0    0    0 -0.00000000000E+00 -0.00000000000E+00  0.11368683772E-12  0.17120000000E+03  0.17120000000E+03 0.  0.
         13    1    1    2    0    0 -0.10629097100E+01  0.11764120045E+02  0.32905270787E+02  0.34961297274E+02  0.10566000000E+00 0.  1.
        994    1    1    2    0    0 -0.12596507453E+01  0.11422954723E+02  0.26818032041E+01  0.17160624314E+03  0.17120000000E+03 0.  0.
        998    1    1    2    0    0  0.23225604552E+01 -0.23187074768E+02  0.14644129223E+04  0.14646324596E+04  0.10000000000E+02 0.  1.
</event>
<event>
 5    1  0.1360042E-008  0.3847896E+03  0.7957747E-01  0.3430565E+00
         13   -1    0    0    0    0  0.00000000000E+00  0.00000000000E+00  0.14999999963E+04  0.15000000000E+04  0.10566000000E+00 0. -1.
        994   -1    0    0    0    0 -0.00000000000E+00 -0.00000000000E+00  0.11368683772E-12  0.17120000000E+03  0.17120000000E+03 0.  0.
         13    1    1    2    0    0 -0.48529939406E+00 -0.18376281437E+02  0.94051687940E+02  0.95831385273E+02  0.10566000000E+00 0. -1.
        994    1    1    2    0    0  0.12316328120E+02  0.16305046185E+02  0.31099543533E+01  0.17244320307E+03  0.17120000000E+03 0.  0.
        998    1    1    2    0    0 -0.11831028726E+02  0.20712352523E+01  0.14028383540E+04  0.14029254117E+04  0.10000000000E+02 0. -1.
</event>
<event>
 5    1  0.1360042E-008  0.3760472E+03  0.7957747E-01  0.3468553E+00
         13   -1    0    0    0    0  0.00000000000E+00  0.00000000000E+00  0.14999999963E+04  0.15000000000E+04  0.10566000000E+00 0.  1.
        994   -1    0    0    0    0 -0.00000000000E+00 -0.00000000000E+00  0.11368683772E-12  0.17120000000E+03  0.17120000000E+03 0.  0.
         13    1    1    2    0    0  0.29347703175E+01  0.35246652839E+02  0.10418277322E+03  0.11002272862E+03  0.10566000000E+00 0.  1.
        994    1    1    2    0    0  0.39942308273E+01 -0.12014570168E+02  0.66851292972E+01  0.17179765636E+03  0.17120000000E+03 0.  0.
        998    1    1    2    0    0 -0.69290011448E+01 -0.23232082671E+02  0.13891320938E+04  0.13893796150E+04  0.10000000000E+02 0.  1.
</event>
<event>
 5    1  0.1360042E-008  0.3854754E+03  0.7957747E-01  0.3427659E+00
         13   -1    0    0    0    0  0.00000000000E+00  0.00000000000E+00  0.14999999963E+04  0.15000000000E+04  0.10566000000E+00 0.  1.
        994   -1    0    0    0    0 -0.00000000000E+00 -0.00000000000E+00  0.11368683772E-12  0.17120000000E+03  0.17120000000E+03 0.  0.
         13    1    1    2    0    0  0.23432151701E+01  0.45500502159E+02  0.52683406878E+02  0.69651553309E+02  0.10566000000E+00 0.  1.
        994    1    1    2    0    0 -0.47184653363E+02  0.21765117445E+02  0.29421175776E+02  0.18131507779E+03  0.17120000000E+03 0.  0.
        998    1    1    2    0    0  0.44841438192E+02 -0.67265619604E+02  0.14178954136E+04  0.14202333689E+04  0.10000000000E+02 0.  1.
</event>
<event>
 5    1  0.1360042E-008  0.3823717E+03  0.7957747E-01  0.3440896E+00
         13   -1    0    0    0    0  0.00000000000E+00  0.00000000000E+00  0.14999999963E+04  0.15000000000E+04  0.10566000000E+00 0. -1.
        994   -1    0    0    0    0 -0.00000000000E+00 -0.00000000000E+00  0.11368683772E-12  0.17120000000E+03  0.17120000000E+03 0.  0.
         13    1    1    2    0    0  0.10427249551E+02 -0.11731652355E+02  0.42705504009E+02  0.45498686100E+02  0.10566000000E+00 0. -1.
        994    1    1    2    0    0 -0.96917248894E+01 -0.89150309770E+01  0.35160546764E+01  0.17174169543E+03  0.17120000000E+03 0.  0.
        998    1    1    2    0    0 -0.73552466149E+00  0.20646683332E+02  0.14537784376E+04  0.14539596185E+04  0.10000000000E+02 0. -1.
</event>
<event>
 5    1  0.1360042E-008  0.3757441E+03  0.7957747E-01  0.3469902E+00
         13   -1    0    0    0    0  0.00000000000E+00  0.00000000000E+00  0.14999999963E+04  0.15000000000E+04  0.10566000000E+00 0.  1.
        994   -1    0    0    0    0 -0.00000000000E+00 -0.00000000000E+00  0.11368683772E-12  0.17120000000E+03  0.17120000000E+03 0.  0.
         13    1    1    2    0    0  0.33463707018E+01 -0.44734445759E+02  0.21236624883E+03  0.21705253659E+03  0.10566000000E+00 0.  1.
        994    1    1    2    0    0 -0.46957868836E+00 -0.18802938405E+02  0.74975635348E+01  0.17239322625E+03  0.17120000000E+03 0.  0.
        998    1    1    2    0    0 -0.28767920135E+01  0.63537384164E+02  0.12801361839E+04  0.12817542372E+04  0.10000000000E+02 0.  1.
</event>
<event>
 5    1  0.1360042E-008  0.3763706E+03  0.7957747E-01  0.3467115E+00
         13   -1    0    0    0    0  0.00000000000E+00  0.00000000000E+00  0.14999999963E+04  0.15000000000E+04  0.10566000000E+00 0. -1.
        994   -1    0    0    0    0 -0.00000000000E+00 -0.00000000000E+00  0.11368683772E-12  0.17120000000E+03  0.17120000000E+03 0.  0.
         13    1    1    2    0    0  0.20276146617E+02 -0.31398635954E+02  0.12601989565E+03  0.13144588896E+03  0.10566000000E+00 0. -1.
        994    1    1    2    0    0 -0.87839643635E+01 -0.12131407843E+01  0.62426512636E+01  0.17154311538E+03  0.17120000000E+03 0.  0.
        998    1    1    2    0    0 -0.11492182253E+02  0.32611776738E+02  0.13677374494E+04  0.13682109957E+04  0.10000000000E+02 0. -1.
</event>
<event>
 5    1  0.1649721E-008  0.3854722E+03  0.7957747E-01  0.3427672E+00
         13   -1    0    0    0    0  0.00000000000E+00  0.00000000000E+00  0.14999999963E+04  0.15000000000E+04  0.10566000000E+00 0. -1.
        994   -1    0    0    0    0 -0.00000000000E+00 -0.00000000000E+00  0.11368683772E-12  0.17120000000E+03  0.17120000000E+03 0.  0.
         13    1    1    2    0    0 -0.70573831765E+01 -0.13951002256E+02  0.92996349201E+02  0.94301480635E+02  0.10566000000E+00 0. -1.
        994    1    1    2    0    0 -0.22615627729E-02  0.38035311404E+01  0.14433859518E+01  0.17124832909E+03  0.17120000000E+03 0.  0.
        998    1    1    2    0    0  0.70596447393E+01  0.10147471115E+02  0.14055602611E+04  0.14056501903E+04  0.10000000000E+02 0. -1.
</event>
<event>
 5    1  0.1360042E-008  0.3825292E+03  0.7957747E-01  0.3440219E+00
         13   -1    0    0    0    0  0.00000000000E+00  0.00000000000E+00  0.14999999963E+04  0.15000000000E+04  0.10566000000E+00 0.  1.
        994   -1    0    0    0    0 -0.00000000000E+00 -0.00000000000E+00  0.11368683772E-12  0.17120000000E+03  0.17120000000E+03 0.  0.
         13    1    1    2    0    0 -0.48237581467E+01 -0.12846079604E+02  0.31803367076E+02  0.34637490170E+02  0.10566000000E+00 0.  1.
        994    1    1    2    0    0  0.30839730550E+01  0.96499728564E+01  0.32021434312E+01  0.17152937529E+03  0.17120000000E+03 0.  0.
        998    1    1    2    0    0  0.17397850917E+01  0.31961067479E+01  0.14649944858E+04  0.14650331345E+04  0.10000000000E+02 0.  1.
</event>
<event>
 5    1  0.1360042E-008  0.3816294E+03  0.7957747E-01  0.3444094E+00
         13   -1    0    0    0    0  0.00000000000E+00  0.00000000000E+00  0.14999999963E+04  0.15000000000E+04  0.10566000000E+00 0. -1.
        994   -1    0    0    0    0 -0.00000000000E+00 -0.00000000000E+00  0.11368683772E-12  0.17120000000E+03  0.17120000000E+03 0.  0.
         13    1    1    2    0    0 -0.21137240283E+02  0.34483056226E+02  0.20668544620E+03  0.21060567164E+03  0.10566000000E+00 0. -1.
        994    1    1    2    0    0  0.31872616899E+02 -0.33163331626E+02  0.10379695895E+02  0.17757490915E+03  0.17120000000E+03 0.  0.
        998    1    1    2    0    0 -0.10735376616E+02 -0.13197246001E+01  0.12829348542E+04  0.12830194192E+04  0.10000000000E+02 0. -1.
</event>
<event>
 5    1  0.1360042E-008  0.3803394E+03  0.7957747E-01  0.3449682E+00
         13   -1    0    0    0    0  0.00000000000E+00  0.00000000000E+00  0.14999999963E+04  0.15000000000E+04  0.10566000000E+00 0.  1.
        994   -1    0    0    0    0 -0.00000000000E+00 -0.00000000000E+00  0.11368683772E-12  0.17120000000E+03  0.17120000000E+03 0.  0.
         13    1    1    2    0    0  0.21961489122E+02 -0.93152722501E+01  0.67882376427E+02  0.71952133359E+02  0.10566000000E+00 0.  1.
        994    1    1    2    0    0 -0.18340389725E+02  0.16968974492E+02  0.60494211694E+01  0.17311947172E+03  0.17120000000E+03 0.  0.
        998    1    1    2    0    0 -0.36210993967E+01 -0.76537022418E+01  0.14260681987E+04  0.14261283949E+04  0.10000000000E+02 0.  1.
</event>
<event>
 5    1  0.1360042E-008  0.3857365E+03  0.7957747E-01  0.3426554E+00
         13   -1    0    0    0    0  0.00000000000E+00  0.00000000000E+00  0.14999999963E+04  0.15000000000E+04  0.10566000000E+00 0.  1.
        994   -1    0    0    0    0 -0.00000000000E+00 -0.00000000000E+00  0.11368683772E-12  0.17120000000E+03  0.17120000000E+03 0.  0.
         13    1    1    2    0    0  0.13421656766E+02 -0.47812539616E+01  0.82447511805E+02  0.83669615911E+02  0.10566000000E+00 0.  1.
        994    1    1    2    0    0 -0.86349587027E+01 -0.34137831304E+01  0.15478159659E+01  0.17145860189E+03  0.17120000000E+03 0.  0.
        998    1    1    2    0    0 -0.47866980630E+01  0.81950370920E+01  0.14160046685E+04  0.14160717822E+04  0.10000000000E+02 0.  1.
</event>
<event>
 5    1  0.1360042E-008  0.3810784E+03  0.7957747E-01  0.3446476E+00
         13   -1    0    0    0    0  0.00000000000E+00  0.00000000000E+00  0.14999999963E+04  0.15000000000E+04  0.10566000000E+00 0. -1.
        994   -1    0    0    0    0 -0.00000000000E+00 -0.00000000000E+00  0.11368683772E-12  0.17120000000E+03  0.17120000000E+03 0.  0.
         13    1    1    2    0    0  0.13369876109E+03  0.10983837741E+03  0.10437025760E+04  0.10579484421E+04  0.10566000000E+00 0. -1.
        994    1    1    2    0    0 -0.13122905767E+03 -0.11133152583E+03  0.10950269916E+03  0.26630068597E+03  0.17120000000E+03 0.  0.
        998    1    1    2    0    0 -0.24697034129E+01  0.14931484252E+01  0.34679472111E+03  0.34695087191E+03  0.10000000000E+02 0.  0.
</event>
<event>
 5    1  0.1360042E-008  0.3785795E+03  0.7957747E-01  0.3457367E+00
         13   -1    0    0    0    0  0.00000000000E+00  0.00000000000E+00  0.14999999963E+04  0.15000000000E+04  0.10566000000E+00 0.  1.
        994   -1    0    0    0    0 -0.00000000000E+00 -0.00000000000E+00  0.11368683772E-12  0.17120000000E+03  0.17120000000E+03 0.  0.
         13    1    1    2    0    0  0.31353769046E+02 -0.64770458213E+02  0.42076466197E+03  0.42687373194E+03  0.10566000000E+00 0.  1.
        994    1    1    2    0    0 -0.14928011141E+02  0.64007554977E+02  0.19500516158E+02  0.18441670950E+03  0.17120000000E+03 0.  0.
        998    1    1    2    0    0 -0.16425757905E+02  0.76290323594E+00  0.10597348181E+04  0.10599095586E+04  0.10000000000E+02 0.  1.
</event>
<event>
 5    1  0.1360042E-008  0.3850755E+03  0.7957747E-01  0.3429352E+00
         13   -1    0    0    0    0  0.00000000000E+00  0.00000000000E+00  0.14999999963E+04  0.15000000000E+04  0.10566000000E+00 0.  1.
        994   -1    0    0    0    0 -0.00000000000E+00 -0.00000000000E+00  0.11368683772E-12  0.17120000000E+03  0.17120000000E+03 0.  0.
         13    1    1    2    0    0 -0.93045416472E+01  0.10420559070E+02  0.66556222814E+02  0.68006650453E+02  0.10566000000E+00 0.  1.
        994    1    1    2    0    0 -0.42982765818E+01  0.49471167775E+00  0.16542150408E+01  0.17126265311E+03  0.17120000000E+03 0.  0.
        998    1    1    2    0    0  0.13602818229E+02 -0.10915270748E+02  0.14317895584E+04  0.14319306964E+04  0.10000000000E+02 0.  1.
</event>
<event>
 5    1  0.1360042E-008  0.3767623E+03  0.7957747E-01  0.3465378E+00
         13   -1    0    0    0    0  0.00000000000E+00  0.00000000000E+00  0.14999999963E+04  0.15000000000E+04  0.10566000000E+00 0.  1.
        994   -1    0    0    0    0 -0.00000000000E+00 -0.00000000000E+00  0.11368683772E-12  0.17120000000E+03  0.17120000000E+03 0.  0.
         13    1    1    2    0    0  0.45937232713E+02 -0.19899437177E+02  0.15592230136E+03  0.16376199856E+03  0.10566000000E+00 0.  1.
        994    1    1    2    0    0 -0.74969432722E+02  0.50193116964E+02  0.33796442719E+02  0.19644695053E+03  0.17120000000E+03 0.  0.
        998    1    1    2    0    0  0.29032200009E+02 -0.30293679787E+02  0.13102812522E+04  0.13109910509E+04  0.10000000000E+02 0.  1.
</event>
<event>
 5    1  0.1360042E-008  0.3830786E+03  0.7957747E-01  0.3437862E+00
         13   -1    0    0    0    0  0.00000000000E+00  0.00000000000E+00  0.14999999963E+04  0.15000000000E+04  0.10566000000E+00 0. -1.
        994   -1    0    0    0    0 -0.00000000000E+00 -0.00000000000E+00  0.11368683772E-12  0.17120000000E+03  0.17120000000E+03 0.  0.
         13    1    1    2    0    0  0.56790191188E+01 -0.17096674409E+02  0.62498034198E+02  0.65042778051E+02  0.10566000000E+00 0. -1.
        994    1    1    2    0    0 -0.34377183783E+01  0.94385767609E+01  0.29211045375E+01  0.17151932104E+03  0.17120000000E+03 0.  0.
        998    1    1    2    0    0 -0.22413007406E+01  0.76580976486E+01  0.14345808575E+04  0.14346379009E+04  0.10000000000E+02 0. -1.
</event>
<event>
 5    1  0.1360042E-008  0.3862679E+03  0.7957747E-01  0.3424313E+00
         13   -1    0    0    0    0  0.00000000000E+00  0.00000000000E+00  0.14999999963E+04  0.15000000000E+04  0.10566000000E+00 0.  1.
        994   -1    0    0    0    0 -0.00000000000E+00 -0.00000000000E+00  0.11368683772E-12  0.17120000000E+03  0.17120000000E+03 0.  0.
         13    1    1    2    0    0  0.29521434201E+01 -0.96685708419E+01  0.58125779281E+02  0.58998421961E+02  0.10566000000E+00 0.  1.
        994    1    1    2    0    0  0.95976506063E+01 -0.52381968706E+01  0.13936081542E+01  0.17155446875E+03  0.17120000000E+03 0.  0.
        998    1    1    2    0    0 -0.12549794026E+02  0.14906767712E+02  0.14404806088E+04  0.14406471093E+04  0.10000000000E+02 0.  1.
</event>
<event>
 5    1  0.1360042E-008  0.3826417E+03  0.7957747E-01  0.3439736E+00
         13   -1    0    0    0    0  0.00000000000E+00  0.00000000000E+00  0.14999999963E+04  0.15000000000E+04  0.10566000000E+00 0. -1.
        994   -1    0    0    0    0 -0.00000000000E+00 -0.00000000000E+00  0.11368683772E-12  0.17120000000E+03  0.17120000000E+03 0.  0.
         13    1    1    2    0    0 -0.12449503065E+01 -0.10969729859E+02  0.20421466118E+02  0.23214915828E+02  0.10566000000E+00 0. -1.
        994    1    1    2    0    0  0.52554406735E+01  0.10965829118E+02  0.32957188596E+01  0.17166295706E+03  0.17120000000E+03 0.  0.
        998    1    1    2    0    0 -0.40104903671E+01  0.39007414537E-02  0.14762828113E+04  0.14763221271E+04  0.10000000000E+02 0. -1.
</event>
<event>
 5    1  0.1360042E-008  0.3800431E+03  0.7957747E-01  0.3450971E+00
         13   -1    0    0    0    0  0.00000000000E+00  0.00000000000E+00  0.14999999963E+04  0.15000000000E+04  0.10566000000E+00 0.  1.
        994   -1    0    0    0    0 -0.00000000000E+00 -0.00000000000E+00  0.11368683772E-12  0.17120000000E+03  0.17120000000E+03 0.  0.
         13    1    1    2    0    0 -0.21744530306E+02 -0.45344425340E+01  0.68776716453E+02  0.72274709667E+02  0.10566000000E+00 0.  1.
        994    1    1    2    0    0 -0.20156132195E+02 -0.13751444903E+02  0.61039227051E+01  0.17303776979E+03  0.17120000000E+03 0.  0.
        998    1    1    2    0    0  0.41900662501E+02  0.18285887437E+02  0.14251193571E+04  0.14258875205E+04  0.10000000000E+02 0.  1.
</event>
<event>
 5    1  0.1360042E-008  0.3848084E+03  0.7957747E-01  0.3430485E+00
         13   -1    0    0    0    0  0.00000000000E+00  0.00000000000E+00  0.14999999963E+04  0.15000000000E+04  0.10566000000E+00 0. -1.
        994   -1    0    0    0    0 -0.00000000000E+00 -0.00000000000E+00  0.11368683772E-12  0.17120000000E+03  0.17120000000E+03 0.  0.
         13    1    1    2    0    0  0.20564321008E+02 -0.75691568365E+00  0.11782462808E+03  0.11960818687E+03  0.10566000000E+00 0. -1.
        994    1    1    2    0    0 -0.17679557625E+02  0.19888781758E+01  0.27675574206E+01  0.17214418889E+03  0.17120000000E+03 0.  0.
        998    1    1    2    0    0 -0.28847633827E+01 -0.12319624922E+01  0.13794078108E+04  0.13794476242E+04  0.10000000000E+02 0. -1.
</event>
<event>
 5    1  0.1360042E-008  0.3781649E+03  0.7957747E-01  0.3459188E+00
         13   -1    0    0    0    0  0.00000000000E+00  0.00000000000E+00  0.14999999963E+04  0.15000000000E+04  0.10566000000E+00 0.  1.
        994   -1    0    0    0    0 -0.00000000000E+00 -0.00000000000E+00  0.11368683772E-12  0.17120000000E+03  0.17120000000E+03 0.  0.
         13    1    1    2    0    0  0.77657490504E+01 -0.36554417910E+02  0.12037842106E+03  0.12604565739E+03  0.10566000000E+00 0.  1.
        994    1    1    2    0    0 -0.87651559136E+01  0.45605199332E+02  0.12350417251E+02  0.17781629557E+03  0.17120000000E+03 0.  0.
        998    1    1    2    0    0  0.99940686317E+00 -0.90507814228E+01  0.13672711580E+04  0.13673380470E+04  0.10000000000E+02 0.  1.
</event>
<event>
 5    1  0.1360042E-008  0.3776605E+03  0.7957747E-01  0.3461409E+00
         13   -1    0    0    0    0  0.00000000000E+00  0.00000000000E+00  0.14999999963E+04  0.15000000000E+04  0.10566000000E+00 0.  1.
        994   -1    0    0    0    0 -0.00000000000E+00 -0.00000000000E+00  0.11368683772E-12  0.17120000000E+03  0.17120000000E+03 0.  0.
         13    1    1    2    0    0  0.24986004080E+02  0.47278023961E+01  0.50017650573E+02  0.56110863906E+02  0.10566000000E+00 0.  1.
        994    1    1    2    0    0 -0.60867949029E+02 -0.18074183009E+02  0.19023730696E+02  0.18358356582E+03  0.17120000000E+03 0.  0.
        998    1    1    2    0    0  0.35881944949E+02  0.13346380613E+02  0.14309586150E+04  0.14315055703E+04  0.10000000000E+02 0.  1.
</event>
<event>
 5    1  0.1360042E-008  0.3856750E+03  0.7957747E-01  0.3426815E+00
         13   -1    0    0    0    0  0.00000000000E+00  0.00000000000E+00  0.14999999963E+04  0.15000000000E+04  0.10566000000E+00 0. -1.
        994   -1    0    0    0    0 -0.00000000000E+00 -0.00000000000E+00  0.11368683772E-12  0.17120000000E+03  0.17120000000E+03 0.  0.
         13    1    1    2    0    0 -0.10378953569E+02 -0.42968753578E+00  0.36682863818E+02  0.38125463545E+02  0.10566000000E+00 0. -1.
        994    1    1    2    0    0  0.33455811016E+02 -0.20016587649E+02  0.62990470719E+01  0.17569596770E+03  0.17120000000E+03 0.  0.
        998    1    1    2    0    0 -0.23076857447E+02  0.20446275185E+02  0.14570180854E+04  0.14573785688E+04  0.10000000000E+02 0. -1.
</event>
<event>
 5    1  0.1360042E-008  0.3831641E+03  0.7957747E-01  0.3437496E+00
         13   -1    0    0    0    0  0.00000000000E+00  0.00000000000E+00  0.14999999963E+04  0.15000000000E+04  0.10566000000E+00 0. -1.
        994   -1    0    0    0    0 -0.00000000000E+00 -0.00000000000E+00  0.11368683772E-12  0.17120000000E+03  0.17120000000E+03 0.  0.
         13    1    1    2    0    0 -0.22100759804E+02 -0.43988178711E+01  0.94065999613E+02  0.96727538115E+02  0.10566000000E+00 0. -1.
        994    1    1    2    0    0  0.21125910251E+02  0.92615442506E+01  0.43066392024E+01  0.17280065806E+03  0.17120000000E+03 0.  0.
        998    1    1    2    0    0  0.97484955269E+00 -0.48627263794E+01  0.14016273575E+04  0.14016718038E+04  0.10000000000E+02 0. -1.
</event>
<event>
 5    1  0.1360042E-008  0.3796902E+03  0.7957747E-01  0.3452509E+00
         13   -1    0    0    0    0  0.00000000000E+00  0.00000000000E+00  0.14999999963E+04  0.15000000000E+04  0.10566000000E+00 0. -1.
        994   -1    0    0    0    0 -0.00000000000E+00 -0.00000000000E+00  0.11368683772E-12  0.17120000000E+03  0.17120000000E+03 0.  0.
         13    1    1    2    0    0 -0.23733228145E+02  0.26267252563E+02  0.14623665146E+03  0.15046063960E+03  0.10566000000E+00 0. -1.
        994    1    1    2    0    0  0.10492292480E+02 -0.16198221122E+02  0.55370246489E+01  0.17237334252E+03  0.17120000000E+03 0.  0.
        998    1    1    2    0    0  0.13240935666E+02 -0.10069031441E+02  0.13482263202E+04  0.13483660179E+04  0.10000000000E+02 0. -1.
</event>
<event>
 5    1  0.1360042E-008  0.3707883E+03  0.7957747E-01  0.3492276E+00
         13   -1    0    0    0    0  0.00000000000E+00  0.00000000000E+00  0.14999999963E+04  0.15000000000E+04  0.10566000000E+00 0. -1.
        994   -1    0    0    0    0 -0.00000000000E+00 -0.00000000000E+00  0.11368683772E-12  0.17120000000E+03  0.17120000000E+03 0.  0.
         13    1    1    2    0    0 -0.23331302092E+02  0.29846165047E+01  0.19396327614E+02  0.30487477461E+02  0.10566000000E+00 0. -1.
        994    1    1    2    0    0  0.20728563005E+02  0.19647330343E+01  0.12877481808E+02  0.17294161743E+03  0.17120000000E+03 0.  0.
        998    1    1    2    0    0  0.26027390872E+01 -0.49493495391E+01  0.14677261869E+04  0.14677709051E+04  0.10000000000E+02 0. -1.
</event>
<event>
 5    1  0.1669919E-008  0.3862703E+03  0.7957747E-01  0.3424302E+00
         13   -1    0    0    0    0  0.00000000000E+00  0.00000000000E+00  0.14999999963E+04  0.15000000000E+04  0.10566000000E+00 0.  1.
        994   -1    0    0    0    0 -0.00000000000E+00 -0.00000000000E+00  0.11368683772E-12  0.17120000000E+03  0.17120000000E+03 0.  0.
         13    1    1    2    0    0  0.17174293381E+01  0.11573238059E+02  0.68408010833E+02  0.69401415785E+02  0.10566000000E+00 0.  1.
        994    1    1    2    0    0  0.33148719880E+00 -0.99073318608E+01  0.13226466178E+01  0.17149184967E+03  0.17120000000E+03 0.  0.
        998    1    1    2    0    0 -0.20489165369E+01 -0.16659061982E+01  0.14302693388E+04  0.14303067345E+04  0.10000000000E+02 0.  1.
</event>
<event>
 5    1  0.1360042E-008  0.3813368E+03  0.7957747E-01  0.3445359E+00
         13   -1    0    0    0    0  0.00000000000E+00  0.00000000000E+00  0.14999999963E+04  0.15000000000E+04  0.10566000000E+00 0. -1.
        994   -1    0    0    0    0 -0.00000000000E+00 -0.00000000000E+00  0.11368683772E-12  0.17120000000E+03  0.17120000000E+03 0.  0.
         13    1    1    2    0    0 -0.12359239749E+02  0.12989296466E+01  0.20456969157E+02  0.23936097772E+02  0.10566000000E+00 0. -1.
        994    1    1    2    0    0  0.15700065539E+02 -0.92662273610E+01  0.45668084961E+01  0.17222848419E+03  0.17120000000E+03 0.  0.
        998    1    1    2    0    0 -0.33408257904E+01  0.79672977144E+01  0.14749762186E+04  0.14750354180E+04  0.10000000000E+02 0. -1.
</event>
<event>
 5    1  0.1360042E-008  0.3831603E+03  0.7957747E-01  0.3437512E+00
         13   -1    0    0    0    0  0.00000000000E+00  0.00000000000E+00  0.14999999963E+04  0.15000000000E+04  0.10566000000E+00 0. -1.
        994   -1    0    0    0    0 -0.00000000000E+00 -0.00000000000E+00  0.11368683772E-12  0.17120000000E+03  0.17120000000E+03 0.  0.
         13    1    1    2    0    0  0.19172014630E+02  0.22451576541E+02  0.16210900838E+03  0.16477554793E+03  0.10566000000E+00 0. -1.
        994    1    1    2    0    0 -0.22971863066E+02 -0.11694945713E+02  0.47477077236E+01  0.17319485840E+03  0.17120000000E+03 0.  0.
        998    1    1    2    0    0  0.37998484355E+01 -0.10756630827E+02  0.13331432802E+04  0.13332295937E+04  0.10000000000E+02 0. -1.
</event>
<event>
 5    1  0.1360042E-008  0.3966994E+03  0.7957747E-01  0.3381520E+00
         13   -1    0    0    0    0  0.00000000000E+00  0.00000000000E+00  0.14999999963E+04  0.15000000000E+04  0.10566000000E+00 0. -1.
        994   -1    0    0    0    0 -0.00000000000E+00 -0.00000000000E+00  0.11368683772E-12  0.17120000000E+03  0.17120000000E+03 0.  0.
         13    1    1    2    0    0  0.11180417552E+03 -0.50061695381E+02  0.53069911309E+03  0.54465393307E+03  0.10566000000E+00 0. -1.
        994    1    1    2    0    0 -0.47655709472E+02 -0.10153708459E+03  0.76277681499E+02  0.21842291750E+03  0.17120000000E+03 0.  0.
        998    1    1    2    0    0 -0.64148466050E+02  0.15159877997E+03  0.89302320169E+03  0.90812314943E+03  0.10000000000E+02 0. -1.
</event>
<event>
 5    1  0.1360042E-008  0.3858588E+03  0.7957747E-01  0.3426038E+00
         13   -1    0    0    0    0  0.00000000000E+00  0.00000000000E+00  0.14999999963E+04  0.15000000000E+04  0.10566000000E+00 0.  1.
        994   -1    0    0    0    0 -0.00000000000E+00 -0.00000000000E+00  0.11368683772E-12  0.17120000000E+03  0.17120000000E+03 0.  0.
         13    1    1    2    0    0  0.10191836059E+02  0.47395808934E+01  0.52753245503E+02  0.53937493679E+02  0.10566000000E+00 0.  1.
        994    1    1    2    0    0 -0.91646693140E+01  0.41960059363E+00  0.14804284971E+01  0.17145203089E+03  0.17120000000E+03 0.  0.
        998    1    1    2    0    0 -0.10271667448E+01 -0.51591814870E+01  0.14457663223E+04  0.14458104754E+04  0.10000000000E+02 0.  1.
</event>
<event>
 5    1  0.1360042E-008  0.3832306E+03  0.7957747E-01  0.3437211E+00
         13   -1    0    0    0    0  0.00000000000E+00  0.00000000000E+00  0.14999999963E+04  0.15000000000E+04  0.10566000000E+00 0. -1.
        994   -1    0    0    0    0 -0.00000000000E+00 -0.00000000000E+00  0.11368683772E-12  0.17120000000E+03  0.17120000000E+03 0.  0.
         13    1    1    2    0    0 -0.68668760179E+01  0.10848568160E+02  0.32277460792E+02  0.34737458983E+02  0.10566000000E+00 0. -1.
        994    1    1    2    0    0  0.26599263875E+01 -0.61164475154E+01  0.26583010063E+01  0.17135049665E+03  0.17120000000E+03 0.  0.
        998    1    1    2    0    0  0.42069496303E+01 -0.47321206445E+01  0.14650642345E+04  0.14651120444E+04  0.10000000000E+02 0. -1.
</event>
<event>
 5    1  0.1360042E-008  0.3821380E+03  0.7957747E-01  0.3441902E+00
         13   -1    0    0    0    0  0.00000000000E+00  0.00000000000E+00  0.14999999963E+04  0.15000000000E+04  0.10566000000E+00 0.  1.
        994   -1    0    0    0    0 -0.00000000000E+00 -0.00000000000E+00  0.11368683772E-12  0.17120000000E+03  0.17120000000E+03 0.  0.
         13    1    1    2    0    0  0.94873840498E+01 -0.16074467761E+02  0.52647063321E+02  0.55858064863E+02  0.10566000000E+00 0.  1.
        994    1    1    2    0    0 -0.22737931642E+02  0.17167034857E+02  0.57569327254E+01  0.17364994355E+03  0.17120000000E+03 0.  0.
        998    1    1    2    0    0  0.13250547592E+02 -0.10925670957E+01  0.14415960002E+04  0.14416919916E+04  0.10000000000E+02 0.  1.
</event>
<event>
 5    1  0.1360042E-008  0.3759133E+03  0.7957747E-01  0.3469148E+00
         13   -1    0    0    0    0  0.00000000000E+00  0.00000000000E+00  0.14999999963E+04  0.15000000000E+04  0.10566000000E+00 0.  1.
        994   -1    0    0    0    0 -0.00000000000E+00 -0.00000000000E+00  0.11368683772E-12  0.17120000000E+03  0.17120000000E+03 0.  0.
         13    1    1    2    0    0 -0.27503004527E+02 -0.44802866439E+02  0.18562212743E+03  0.19292303506E+03  0.10566000000E+00 0.  1.
        994    1    1    2    0    0  0.62710203237E+01  0.67611247929E+02  0.21998270122E+02  0.18548307316E+03  0.17120000000E+03 0.  0.
        998    1    1    2    0    0  0.21231984203E+02 -0.22808381490E+02  0.12923795987E+04  0.12927938918E+04  0.10000000000E+02 0.  1.
</event>
<event>
 5    1  0.1360042E-008  0.3806654E+03  0.7957747E-01  0.3448266E+00
         13   -1    0    0    0    0  0.00000000000E+00  0.00000000000E+00  0.14999999963E+04  0.15000000000E+04  0.10566000000E+00 0.  1.
        994   -1    0    0    0    0 -0.00000000000E+00 -0.00000000000E+00  0.11368683772E-12  0.17120000000E+03  0.17120000000E+03 0.  0.
         13    1    1    2    0    0 -0.18323002696E+02  0.25581020750E+00  0.42143140108E+02  0.45954904949E+02  0.10566000000E+00 0.  1.
        994    1    1    2    0    0  0.16385484791E+02 -0.87537652011E+00  0.46962634458E+01  0.17204867127E+03  0.17120000000E+03 0.  0.
        998    1    1    2    0    0  0.19375179050E+01  0.61956631262E+00  0.14531605927E+04  0.14531964238E+04  0.10000000000E+02 0.  1.
</event>
<event>
 5    1  0.1360042E-008  0.3804859E+03  0.7957747E-01  0.3449046E+00
         13   -1    0    0    0    0  0.00000000000E+00  0.00000000000E+00  0.14999999963E+04  0.15000000000E+04  0.10566000000E+00 0. -1.
        994   -1    0    0    0    0 -0.00000000000E+00 -0.00000000000E+00  0.11368683772E-12  0.17120000000E+03  0.17120000000E+03 0.  0.
         13    1    1    2    0    0 -0.48940585177E+02 -0.34005944157E+02  0.28644473298E+03  0.29257850456E+03  0.10566000000E+00 0. -1.
        994    1    1    2    0    0  0.73168492938E+02  0.47984813447E+02  0.29878655886E+02  0.19457220962E+03  0.17120000000E+03 0.  0.
        998    1    1    2    0    0 -0.24227907761E+02 -0.13978869290E+02  0.11836766074E+04  0.11840492858E+04  0.10000000000E+02 0. -1.
</event>
<event>
 5    1  0.1360042E-008  0.3774523E+03  0.7957747E-01  0.3462327E+00
         13   -1    0    0    0    0  0.00000000000E+00  0.00000000000E+00  0.14999999963E+04  0.15000000000E+04  0.10566000000E+00 0. -1.
        994   -1    0    0    0    0 -0.00000000000E+00 -0.00000000000E+00  0.11368683772E-12  0.17120000000E+03  0.17120000000E+03 0.  0.
         13    1    1    2    0    0  0.45397047845E+02  0.74690343370E+01  0.15609357302E+03  0.16273258165E+03  0.10566000000E+00 0. -1.
        994    1    1    2    0    0 -0.65246799994E+02 -0.42387506554E+01  0.19975882409E+02  0.18434637993E+03  0.17120000000E+03 0.  0.
        998    1    1    2    0    0  0.19849752150E+02 -0.32302836816E+01  0.13239305408E+04  0.13241210384E+04  0.10000000000E+02 0. -1.
</event>
<event>
 5    1  0.1360042E-008  0.3798222E+03  0.7957747E-01  0.3451933E+00
         13   -1    0    0    0    0  0.00000000000E+00  0.00000000000E+00  0.14999999963E+04  0.15000000000E+04  0.10566000000E+00 0.  1.
        994   -1    0    0    0    0 -0.00000000000E+00 -0.00000000000E+00  0.11368683772E-12  0.17120000000E+03  0.17120000000E+03 0.  0.
         13    1    1    2    0    0 -0.79919533130E+02 -0.43208202221E+02  0.41379859505E+03  0.42365477567E+03  0.10566000000E+00 0.  1.
        994    1    1    2    0    0 -0.22601549534E+02  0.72647518687E+00  0.18083445078E+02  0.17363124371E+03  0.17120000000E+03 0.  0.
        998    1    1    2    0    0  0.10252108266E+03  0.42481727034E+02  0.10681179562E+04  0.10739139806E+04  0.10000000000E+02 0.  1.
</event>
<event>
 5    1  0.1360042E-008  0.3815578E+03  0.7957747E-01  0.3444403E+00
         13   -1    0    0    0    0  0.00000000000E+00  0.00000000000E+00  0.14999999963E+04  0.15000000000E+04  0.10566000000E+00 0.  1.
        994   -1    0    0    0    0 -0.00000000000E+00 -0.00000000000E+00  0.11368683772E-12  0.17120000000E+03  0.17120000000E+03 0.  0.
         13    1    1    2    0    0  0.22040203039E+02 -0.48961057972E+01  0.72616859319E+02  0.76045787677E+02  0.10566000000E+00 0.  1.
        994    1    1    2    0    0 -0.20656844091E+02  0.33951636427E+01  0.48076642394E+01  0.17254212813E+03  0.17120000000E+03 0.  0.
        998    1    1    2    0    0 -0.13833589484E+01  0.15009421545E+01  0.14225754727E+04  0.14226120842E+04  0.10000000000E+02 0.  1.
</event>
<event>
 5    1  0.1360042E-008  0.3855449E+03  0.7957747E-01  0.3427365E+00
         13   -1    0    0    0    0  0.00000000000E+00  0.00000000000E+00  0.14999999963E+04  0.15000000000E+04  0.10566000000E+00 0.  1.
        994   -1    0    0    0    0 -0.00000000000E+00 -0.00000000000E+00  0.11368683772E-12  0.17120000000E+03  0.17120000000E+03 0.  0.
         13    1    1    2    0    0  0.19829109491E+00 -0.14770664576E+02  0.77062168423E+02  0.78465284155E+02  0.10566000000E+00 0.  1.
        994    1    1    2    0    0  0.14595272509E+01  0.15846664948E+02  0.21916794725E+01  0.17195200048E+03  0.17120000000E+03 0.  0.
        998    1    1    2    0    0 -0.16578183458E+01 -0.10760003716E+01  0.14207461484E+04  0.14207827154E+04  0.10000000000E+02 0.  1.
</event>
<event>
 5    1  0.1360042E-008  0.3819199E+03  0.7957747E-01  0.3442841E+00
         13   -1    0    0    0    0  0.00000000000E+00  0.00000000000E+00  0.14999999963E+04  0.15000000000E+04  0.10566000000E+00 0. -1.
        994   -1    0    0    0    0 -0.00000000000E+00 -0.00000000000E+00  0.11368683772E-12  0.17120000000E+03  0.17120000000E+03 0.  0.
         13    1    1    2    0    0 -0.11559830224E+02  0.30592877499E+02  0.16772913046E+03  0.17088775906E+03  0.10566000000E+00 0. -1.
        994    1    1    2    0    0  0.24081844401E+01 -0.19723489267E+02  0.44797380344E+01  0.17240743439E+03  0.17120000000E+03 0.  0.
        998    1    1    2    0    0  0.91516457841E+01 -0.10869388233E+02  0.13277911278E+04  0.13279048065E+04  0.10000000000E+02 0. -1.
</event>
<event>
 5    1  0.1360042E-008  0.3761015E+03  0.7957747E-01  0.3468311E+00
         13   -1    0    0    0    0  0.00000000000E+00  0.00000000000E+00  0.14999999963E+04  0.15000000000E+04  0.10566000000E+00 0.  1.
        994   -1    0    0    0    0 -0.00000000000E+00 -0.00000000000E+00  0.11368683772E-12  0.17120000000E+03  0.17120000000E+03 0.  0.
         13    1    1    2    0    0  0.63695869648E+01 -0.15489076594E+02  0.20487719591E+02  0.26462066244E+02  0.10566000000E+00 0.  1.
        994    1    1    2    0    0  0.57386802177E+01  0.11601208116E+02  0.66817173519E+01  0.17181852586E+03  0.17120000000E+03 0.  0.
        998    1    1    2    0    0 -0.12108267182E+02  0.38878684788E+01  0.14728305593E+04  0.14729194079E+04  0.10000000000E+02 0.  1.
</event>
<event>
 5    1  0.1918406E-008  0.3852689E+03  0.7957747E-01  0.3428533E+00
         13   -1    0    0    0    0  0.00000000000E+00  0.00000000000E+00  0.14999999963E+04  0.15000000000E+04  0.10566000000E+00 0.  1.
        994   -1    0    0    0    0 -0.00000000000E+00 -0.00000000000E+00  0.11368683772E-12  0.17120000000E+03  0.17120000000E+03 0.  0.
         13    1    1    2    0    0  0.10586191280E+02  0.12708452854E+01  0.37301226739E+02  0.38795298347E+02  0.10566000000E+00 0.  1.
        994    1    1    2    0    0 -0.10446525344E+02 -0.22951107382E+01  0.18726614668E+01  0.17154400102E+03  0.17120000000E+03 0.  0.
        998    1    1    2    0    0 -0.13966593642E+00  0.10242654527E+01  0.14608261081E+04  0.14608607006E+04  0.10000000000E+02 0.  1.
</event>
<event>
 5    1  0.1360042E-008  0.3846230E+03  0.7957747E-01  0.3431273E+00
         13   -1    0    0    0    0  0.00000000000E+00  0.00000000000E+00  0.14999999963E+04  0.15000000000E+04  0.10566000000E+00 0. -1.
        994   -1    0    0    0    0 -0.00000000000E+00 -0.00000000000E+00  0.11368683772E-12  0.17120000000E+03  0.17120000000E+03 0.  0.
         13    1    1    2    0    0 -0.22068744809E+01  0.12665409789E+02  0.43334423042E+02  0.45201396931E+02  0.10566000000E+00 0. -1.
        994    1    1    2    0    0 -0.29568748927E+01 -0.18028152116E+02  0.29171355975E+01  0.17219671036E+03  0.17120000000E+03 0.  0.
        998    1    1    2    0    0  0.51637493736E+01  0.53627423269E+01  0.14537484376E+04  0.14538018927E+04  0.10000000000E+02 0. -1.
</event>
<event>
 5    1  0.1360042E-008  0.3709797E+03  0.7957747E-01  0.3491401E+00
         13   -1    0    0    0    0  0.00000000000E+00  0.00000000000E+00  0.14999999963E+04  0.15000000000E+04  0.10566000000E+00 0.  1.
        994   -1    0    0    0    0 -0.00000000000E+00 -0.00000000000E+00  0.11368683772E-12  0.17120000000E+03  0.17120000000E+03 0.  0.
         13    1    1    2    0    0 -0.17405556405E+02 -0.13682652682E+03  0.57279985716E+03  0.58917241904E+03  0.10566000000E+00 0.  1.
        994    1    1    2    0    0  0.81890423792E+02  0.14474972528E+03  0.11107534093E+03  0.26325974975E+03  0.17120000000E+03 0.  0.
        998    1    1    2    0    0 -0.64484867386E+02 -0.79231984551E+01  0.81612479819E+03  0.81876783120E+03  0.10000000000E+02 0.  1.
</event>
<event>
 5    1  0.1360042E-008  0.3721271E+03  0.7957747E-01  0.3486172E+00
         13   -1    0    0    0    0  0.00000000000E+00  0.00000000000E+00  0.14999999963E+04  0.15000000000E+04  0.10566000000E+00 0.  1.
        994   -1    0    0    0    0 -0.00000000000E+00 -0.00000000000E+00  0.11368683772E-12  0.17120000000E+03  0.17120000000E+03 0.  0.
         13    1    1    2    0    0  0.14937567189E+02  0.39341835698E+02  0.65114396006E+02  0.77529392367E+02  0.10566000000E+00 0.  1.
        994    1    1    2    0    0 -0.17522992190E+02 -0.44120152168E+02  0.20048406955E+02  0.17878764416E+03  0.17120000000E+03 0.  0.
        998    1    1    2    0    0  0.25854250012E+01  0.47783164706E+01  0.14148371933E+04  0.14148829635E+04  0.10000000000E+02 0.  1.
</event>
<event>
 5    1  0.1360042E-008  0.3747221E+03  0.7957747E-01  0.3474467E+00
         13   -1    0    0    0    0  0.00000000000E+00  0.00000000000E+00  0.14999999963E+04  0.15000000000E+04  0.10566000000E+00 0.  1.
        994   -1    0    0    0    0 -0.00000000000E+00 -0.00000000000E+00  0.11368683772E-12  0.17120000000E+03  0.17120000000E+03 0.  0.
         13    1    1    2    0    0 -0.21017961698E+02  0.84283451171E+01  0.35471468576E+02  0.42083583050E+02  0.10566000000E+00 0.  1.
        994    1    1    2    0    0  0.10450964566E+02  0.25370528939E+01  0.72151099745E+01  0.17168912927E+03  0.17120000000E+03 0.  0.
        998    1    1    2    0    0  0.10566997132E+02 -0.10965398011E+02  0.14573134177E+04  0.14574272877E+04  0.10000000000E+02 0.  1.
</event>
<event>
 5    1  0.1360042E-008  0.3759425E+03  0.7957747E-01  0.3469018E+00
         13   -1    0    0    0    0  0.00000000000E+00  0.00000000000E+00  0.14999999963E+04  0.15000000000E+04  0.10566000000E+00 0.  1.
        994   -1    0    0    0    0 -0.00000000000E+00 -0.00000000000E+00  0.11368683772E-12  0.17120000000E+03  0.17120000000E+03 0.  0.
         13    1    1    2    0    0  0.34841500492E+02 -0.24243281562E+01  0.85834664004E+02  0.92668269825E+02  0.10566000000E+00 0.  1.
        994    1    1    2    0    0 -0.50552269157E+02 -0.89411017930E+01  0.15178465590E+02  0.17937475027E+03  0.17120000000E+03 0.  0.
        998    1    1    2    0    0  0.15710768665E+02  0.11365429949E+02  0.13989868667E+04  0.13991569799E+04  0.10000000000E+02 0.  1.
</event>
<event>
 5    1  0.1360042E-008  0.3851661E+03  0.7957747E-01  0.3428968E+00
         13   -1    0    0    0    0  0.00000000000E+00  0.00000000000E+00  0.14999999963E+04  0.15000000000E+04  0.10566000000E+00 0. -1.
        994   -1    0    0    0    0 -0.00000000000E+00 -0.00000000000E+00  0.11368683772E-12  0.17120000000E+03  0.17120000000E+03 0.  0.
         13    1    1    2    0    0  0.13211161240E+02 -0.49106692957E+01  0.70446906896E+02  0.71843074193E+02  0.10566000000E+00 0. -1.
        994    1    1    2    0    0  0.45315177196E+01  0.64854811081E+00  0.16165815313E+01  0.17126881971E+03  0.17120000000E+03 0.  0.
        998    1    1    2    0    0 -0.17742678960E+02  0.42621211849E+01  0.14279365079E+04  0.14280881061E+04  0.10000000000E+02 0. -1.
</event>
<event>
 5    1  0.1360042E-008  0.3839709E+03  0.7957747E-01  0.3434048E+00
         13   -1    0    0    0    0  0.00000000000E+00  0.00000000000E+00  0.14999999963E+04  0.15000000000E+04  0.10566000000E+00 0.  1.
        994   -1    0    0    0    0 -0.00000000000E+00 -0.00000000000E+00  0.11368683772E-12  0.17120000000E+03  0.17120000000E+03 0.  0.
         13    1    1    2    0    0 -0.99684549585E+01 -0.79469675471E+01  0.39544203444E+02  0.41548520762E+02  0.10566000000E+00 0.  1.
        994    1    1    2    0    0 -0.14755270912E+02  0.12585265132E+02  0.33839159688E+01  0.17232816893E+03  0.17120000000E+03 0.  0.
        998    1    1    2    0    0  0.24723725870E+02 -0.46382975850E+01  0.14570718769E+04  0.14573233103E+04  0.10000000000E+02 0.  1.
</event>
<event>
 5    1  0.1360042E-008  0.3823979E+03  0.7957747E-01  0.3440783E+00
         13   -1    0    0    0    0  0.00000000000E+00  0.00000000000E+00  0.14999999963E+04  0.15000000000E+04  0.10566000000E+00 0. -1.
        994   -1    0    0    0    0 -0.00000000000E+00 -0.00000000000E+00  0.11368683772E-12  0.17120000000E+03  0.17120000000E+03 0.  0.
         13    1    1    2    0    0 -0.33053356826E+02  0.23168577961E+02  0.21888069613E+03  0.22257151144E+03  0.10566000000E+00 0. -1.
        994    1    1    2    0    0  0.43701221885E+02 -0.25490500462E+02  0.11463561251E+02  0.17888659996E+03  0.17120000000E+03 0.  0.
        998    1    1    2    0    0 -0.10647865059E+02  0.23219225010E+01  0.12696557389E+04  0.12697418886E+04  0.10000000000E+02 0. -1.
</event>
<event>
 5    1  0.1360042E-008  0.2716725E+03  0.7957747E-01  0.4121608E+00
         13   -1    0    0    0    0  0.00000000000E+00  0.00000000000E+00  0.14999999963E+04  0.15000000000E+04  0.10566000000E+00 0. -1.
        994   -1    0    0    0    0 -0.00000000000E+00 -0.00000000000E+00  0.11368683772E-12  0.17120000000E+03  0.17120000000E+03 0.  0.
         13    1    1    2    0    0 -0.11511847731E+03 -0.15942705776E+03  0.41190905903E+03  0.45644094322E+03  0.10566000000E+00 0. -1.
        994    1    1    2    0    0  0.12137814233E+03  0.13734906896E+03  0.18583571428E+03  0.31215664798E+03  0.17120000000E+03 0.  0.
        998    1    1    2    0    0 -0.62596650200E+01  0.22077988801E+02  0.90225522297E+03  0.90260240880E+03  0.10000000000E+02 0. -1.
</event>
<event>
 5    1  0.1360042E-008  0.3849869E+03  0.7957747E-01  0.3429728E+00
         13   -1    0    0    0    0  0.00000000000E+00  0.00000000000E+00  0.14999999963E+04  0.15000000000E+04  0.10566000000E+00 0.  1.
        994   -1    0    0    0    0 -0.00000000000E+00 -0.00000000000E+00  0.11368683772E-12  0.17120000000E+03  0.17120000000E+03 0.  0.
         13    1    1    2    0    0 -0.14295283590E+02 -0.42770857782E+01  0.66411294187E+02  0.68067023993E+02  0.10566000000E+00 0.  1.
        994    1    1    2    0    0  0.13472871381E+02  0.24565997098E+01  0.22537253620E+01  0.17176167332E+03  0.17120000000E+03 0.  0.
        998    1    1    2    0    0  0.82241220913E+00  0.18204860684E+01  0.14313349767E+04  0.14313713027E+04  0.10000000000E+02 0.  1.
</event>
<event>
 5    1  0.1360042E-008  0.3849190E+03  0.7957747E-01  0.3430016E+00
         13   -1    0    0    0    0  0.00000000000E+00  0.00000000000E+00  0.14999999963E+04  0.15000000000E+04  0.10566000000E+00 0. -1.
        994   -1    0    0    0    0 -0.00000000000E+00 -0.00000000000E+00  0.11368683772E-12  0.17120000000E+03  0.17120000000E+03 0.  0.
         13    1    1    2    0    0  0.83619516981E+01 -0.10062937316E+02  0.50540859567E+02  0.52207035862E+02  0.10566000000E+00 0. -1.
        994    1    1    2    0    0 -0.47655409708E+01  0.10237851527E+02  0.20899622284E+01  0.17158476601E+03  0.17120000000E+03 0.  0.
        998    1    1    2    0    0 -0.35964107273E+01 -0.17491421117E+00  0.14473691745E+04  0.14474081981E+04  0.10000000000E+02 0. -1.
</event>
<event>
 5    1  0.1360042E-008  0.3741329E+03  0.7957747E-01  0.3477110E+00
         13   -1    0    0    0    0  0.00000000000E+00  0.00000000000E+00  0.14999999963E+04  0.15000000000E+04  0.10566000000E+00 0. -1.
        994   -1    0    0    0    0 -0.00000000000E+00 -0.00000000000E+00  0.11368683772E-12  0.17120000000E+03  0.17120000000E+03 0.  0.
         13    1    1    2    0    0  0.12009987177E+03  0.39080296876E+02  0.61999970533E+03  0.63273287774E+03  0.10566000000E+00 0. -1.
        994    1    1    2    0    0 -0.12144376835E+03 -0.36077602107E+02  0.63982128161E+02  0.22238105803E+03  0.17120000000E+03 0.  0.
        998    1    1    2    0    0  0.13438965819E+01 -0.30026947691E+01  0.81601816279E+03  0.81608606423E+03  0.10000000000E+02 0.  0.
</event>
<event>
 5    1  0.1360042E-008  0.3718314E+03  0.7957747E-01  0.3487516E+00
         13   -1    0    0    0    0  0.00000000000E+00  0.00000000000E+00  0.14999999963E+04  0.15000000000E+04  0.10566000000E+00 0.  1.
        994   -1    0    0    0    0 -0.00000000000E+00 -0.00000000000E+00  0.11368683772E-12  0.17120000000E+03  0.17120000000E+03 0.  0.
         13    1    1    2    0    0 -0.10604888064E+01  0.26982649929E+02  0.25022881325E+02  0.36814994058E+02  0.10566000000E+00 0.  1.
        994    1    1    2    0    0  0.52201081519E+00 -0.30391227321E+02  0.15168147377E+02  0.17453770907E+03  0.17120000000E+03 0.  0.
        998    1    1    2    0    0  0.53847799122E+00  0.34085773922E+01  0.14598089676E+04  0.14598472969E+04  0.10000000000E+02 0.  1.
</event>
<event>
 5    1  0.1360042E-008  0.3815387E+03  0.7957747E-01  0.3444486E+00
         13   -1    0    0    0    0  0.00000000000E+00  0.00000000000E+00  0.14999999963E+04  0.15000000000E+04  0.10566000000E+00 0. -1.
        994   -1    0    0    0    0 -0.00000000000E+00 -0.00000000000E+00  0.11368683772E-12  0.17120000000E+03  0.17120000000E+03 0.  0.
         13    1    1    2    0    0  0.24147894274E+02 -0.13430267238E+02  0.10673928022E+03  0.11025777969E+03  0.10566000000E+00 0. -1.
        994    1    1    2    0    0 -0.24541306246E+02  0.93219221781E+01  0.56540061374E+01  0.17329334012E+03  0.17120000000E+03 0.  0.
        998    1    1    2    0    0  0.39341197184E+00  0.41083450602E+01  0.13876067099E+04  0.13876488802E+04  0.10000000000E+02 0. -1.
</event>
<event>
 5    1  0.1360042E-008  0.3843665E+03  0.7957747E-01  0.3432363E+00
         13   -1    0    0    0    0  0.00000000000E+00  0.00000000000E+00  0.14999999963E+04  0.15000000000E+04  0.10566000000E+00 0. -1.
        994   -1    0    0    0    0 -0.00000000000E+00 -0.00000000000E+00  0.11368683772E-12  0.17120000000E+03  0.17120000000E+03 0.  0.
         13    1    1    2    0    0  0.20076129622E+02  0.10078837691E+02  0.12007114669E+03  0.12215451437E+03  0.10566000000E+00 0. -1.
        994    1    1    2    0    0 -0.16778140543E+02 -0.19228359344E+02  0.40940133897E+01  0.17313993401E+03  0.17120000000E+03 0.  0.
        998    1    1    2    0    0 -0.32979890781E+01  0.91495216525E+01  0.13758348362E+04  0.13759055516E+04  0.10000000000E+02 0. -1.
</event>
<event>
 5    1  0.1360042E-008  0.3808680E+03  0.7957747E-01  0.3447388E+00
         13   -1    0    0    0    0  0.00000000000E+00  0.00000000000E+00  0.14999999963E+04  0.15000000000E+04  0.10566000000E+00 0.  1.
        994   -1    0    0    0    0 -0.00000000000E+00 -0.00000000000E+00  0.11368683772E-12  0.17120000000E+03  0.17120000000E+03 0.  0.
         13    1    1    2    0    0 -0.37231883273E+02  0.26297323797E+02  0.24805364649E+03  0.25220702820E+03  0.10566000000E+00 0.  1.
        994    1    1    2    0    0  0.41478353034E+02 -0.11403940557E+02  0.98887377093E+01  0.17679855985E+03  0.17120000000E+03 0.  0.
        998    1    1    2    0    0 -0.42464697607E+01 -0.14893383240E+02  0.12420576121E+04  0.12421944120E+04  0.10000000000E+02 0.  1.
</event>
<event>
 5    1  0.1360042E-008  0.3828538E+03  0.7957747E-01  0.3438826E+00
         13   -1    0    0    0    0  0.00000000000E+00  0.00000000000E+00  0.14999999963E+04  0.15000000000E+04  0.10566000000E+00 0.  1.
        994   -1    0    0    0    0 -0.00000000000E+00 -0.00000000000E+00  0.11368683772E-12  0.17120000000E+03  0.17120000000E+03 0.  0.
         13    1    1    2    0    0  0.65372240213E+02  0.15049511739E+02  0.11377806641E+03  0.13208132780E+03  0.10566000000E+00 0.  1.
        994    1    1    2    0    0 -0.57976190598E+02 -0.17804441119E+02  0.31499523190E+02  0.18433636853E+03  0.17120000000E+03 0.  0.
        998    1    1    2    0    0 -0.73960496152E+01  0.27549293795E+01  0.13547224067E+04  0.13547823037E+04  0.10000000000E+02 0.  1.
</event>
<event>
 5    1  0.1360042E-008  0.3787587E+03  0.7957747E-01  0.3456581E+00
         13   -1    0    0    0    0  0.00000000000E+00  0.00000000000E+00  0.14999999963E+04  0.15000000000E+04  0.10566000000E+00 0. -1.
        994   -1    0    0    0    0 -0.00000000000E+00 -0.00000000000E+00  0.11368683772E-12  0.17120000000E+03  0.17120000000E+03 0.  0.
         13    1    1    2    0    0  0.33398342654E+02  0.96245962708E+01  0.18426377877E+03  0.18751328880E+03  0.10566000000E+00 0. -1.
        994    1    1    2    0    0  0.31897394623E+02  0.11877409259E+02  0.86596630672E+01  0.17476540390E+03  0.17120000000E+03 0.  0.
        998    1    1    2    0    0 -0.65295737276E+02 -0.21502005530E+02  0.13070765544E+04  0.13089213073E+04  0.10000000000E+02 0. -1.
</event>
<event>
 5    1  0.1360042E-008  0.3845815E+03  0.7957747E-01  0.3431449E+00
         13   -1    0    0    0    0  0.00000000000E+00  0.00000000000E+00  0.14999999963E+04  0.15000000000E+04  0.10566000000E+00 0.  1.
        994   -1    0    0    0    0 -0.00000000000E+00 -0.00000000000E+00  0.11368683772E-12  0.17120000000E+03  0.17120000000E+03 0.  0.
         13    1    1    2    0    0 -0.12674459790E+02  0.33843455634E+01  0.45751315278E+02  0.47595060033E+02  0.10566000000E+00 0.  1.
        994    1    1    2    0    0  0.81626444968E+01 -0.17386341709E+02  0.30538861725E+01  0.17230113135E+03  0.17120000000E+03 0.  0.
        998    1    1    2    0    0  0.45118152937E+01  0.14001996146E+02  0.14511947948E+04  0.14513038086E+04  0.10000000000E+02 0.  1.
</event>
<event>
 5    1  0.1360042E-008  0.3826087E+03  0.7957747E-01  0.3439878E+00
         13   -1    0    0    0    0  0.00000000000E+00  0.00000000000E+00  0.14999999963E+04  0.15000000000E+04  0.10566000000E+00 0. -1.
        994   -1    0    0    0    0 -0.00000000000E+00 -0.00000000000E+00  0.11368683772E-12  0.17120000000E+03  0.17120000000E+03 0.  0.
         13    1    1    2    0    0  0.95548982569E+01  0.18516090133E+02  0.78103458571E+02  0.80835036212E+02  0.10566000000E+00 0. -1.
        994    1    1    2    0    0  0.70720225283E+01 -0.13141430390E+02  0.35605508580E+01  0.17188609082E+03  0.17120000000E+03 0.  0.
        998    1    1    2    0    0 -0.16626920785E+02 -0.53746597429E+01  0.14183359868E+04  0.14184788730E+04  0.10000000000E+02 0. -1.
</event>
<event>
 5    1  0.1360042E-008  0.3763157E+03  0.7957747E-01  0.3467359E+00
         13   -1    0    0    0    0  0.00000000000E+00  0.00000000000E+00  0.14999999963E+04  0.15000000000E+04  0.10566000000E+00 0. -1.
        994   -1    0    0    0    0 -0.00000000000E+00 -0.00000000000E+00  0.11368683772E-12  0.17120000000E+03  0.17120000000E+03 0.  0.
         13    1    1    2    0    0  0.25312787238E+02  0.27957098514E+00  0.47803896926E+02  0.54092874605E+02  0.10566000000E+00 0. -1.
        994    1    1    2    0    0 -0.36720751678E+02 -0.28613434371E+01  0.10609415776E+02  0.17543830994E+03  0.17120000000E+03 0.  0.
        998    1    1    2    0    0  0.11407964440E+02  0.25817724520E+01  0.14415866836E+04  0.14416688155E+04  0.10000000000E+02 0. -1.
</event>
<event>
 5    1  0.1360042E-008  0.3790780E+03  0.7957747E-01  0.3455183E+00
         13   -1    0    0    0    0  0.00000000000E+00  0.00000000000E+00  0.14999999963E+04  0.15000000000E+04  0.10566000000E+00 0.  1.
        994   -1    0    0    0    0 -0.00000000000E+00 -0.00000000000E+00  0.11368683772E-12  0.17120000000E+03  0.17120000000E+03 0.  0.
         13    1    1    2    0    0 -0.18730663134E+02 -0.23667863987E+02  0.97743537138E+02  0.10229768200E+03  0.10566000000E+00 0.  1.
        994    1    1    2    0    0  0.53036551200E+01  0.18452322556E+02  0.58362715905E+01  0.17237203669E+03  0.17120000000E+03 0.  0.
        998    1    1    2    0    0  0.13427008014E+02  0.52155414303E+01  0.13964201876E+04  0.13965302813E+04  0.10000000000E+02 0.  1.
</event>
<event>
 5    1  0.1360042E-008  0.3684499E+03  0.7957747E-01  0.3503045E+00
         13   -1    0    0    0    0  0.00000000000E+00  0.00000000000E+00  0.14999999963E+04  0.15000000000E+04  0.10566000000E+00 0.  1.
        994   -1    0    0    0    0 -0.00000000000E+00 -0.00000000000E+00  0.11368683772E-12  0.17120000000E+03  0.17120000000E+03 0.  0.
         13    1    1    2    0    0 -0.99555739972E+02  0.90769336446E+02  0.52636839074E+03  0.54333609464E+03  0.10566000000E+00 0.  1.
        994    1    1    2    0    0  0.10785239245E+03 -0.88495591073E+02  0.81148129158E+02  0.23528295107E+03  0.17120000000E+03 0.  0.
        998    1    1    2    0    0 -0.82966524810E+01 -0.22737453737E+01  0.89248347638E+03  0.89258095429E+03  0.10000000000E+02 0.  1.
</event>
<event>
 5    1  0.1360042E-008  0.3841048E+03  0.7957747E-01  0.3433478E+00
         13   -1    0    0    0    0  0.00000000000E+00  0.00000000000E+00  0.14999999963E+04  0.15000000000E+04  0.10566000000E+00 0. -1.
        994   -1    0    0    0    0 -0.00000000000E+00 -0.00000000000E+00  0.11368683772E-12  0.17120000000E+03  0.17120000000E+03 0.  0.
         13    1    1    2    0    0 -0.14826763733E+02  0.99109799764E+01  0.89300093548E+02  0.91063594914E+02  0.10566000000E+00 0. -1.
        994    1    1    2    0    0 -0.15122020068E+02 -0.17701182620E+01  0.28401859208E+01  0.17189914330E+03  0.17120000000E+03 0.  0.
        998    1    1    2    0    0  0.29948783801E+02 -0.81408617145E+01  0.14078597168E+04  0.14082372618E+04  0.10000000000E+02 0. -1.
</event>
<event>
 5    1  0.1360042E-008  0.3795371E+03  0.7957747E-01  0.3453176E+00
         13   -1    0    0    0    0  0.00000000000E+00  0.00000000000E+00  0.14999999963E+04  0.15000000000E+04  0.10566000000E+00 0. -1.
        994   -1    0    0    0    0 -0.00000000000E+00 -0.00000000000E+00  0.11368683772E-12  0.17120000000E+03  0.17120000000E+03 0.  0.
         13    1    1    2    0    0  0.22308906285E+02  0.13292431092E+02  0.14135137458E+02  0.29566692391E+02  0.10566000000E+00 0. -1.
        994    1    1    2    0    0 -0.26377373838E+02  0.53207486416E+01  0.18696776498E+02  0.17430744582E+03  0.17120000000E+03 0.  0.
        998    1    1    2    0    0  0.40684675528E+01 -0.18613179734E+02  0.14671680823E+04  0.14673258618E+04  0.10000000000E+02 0. -1.
</event>
<event>
 5    1  0.1360042E-008  0.3836325E+03  0.7957747E-01  0.3435493E+00
         13   -1    0    0    0    0  0.00000000000E+00  0.00000000000E+00  0.14999999963E+04  0.15000000000E+04  0.10566000000E+00 0.  1.
        994   -1    0    0    0    0 -0.00000000000E+00 -0.00000000000E+00  0.11368683772E-12  0.17120000000E+03  0.17120000000E+03 0.  0.
         13    1    1    2    0    0  0.10139560216E+03  0.13087996087E+03  0.28777482622E+03  0.33200149709E+03  0.10566000000E+00 0.  1.
        994    1    1    2    0    0 -0.12480934420E+03 -0.22606954897E+03  0.33443774198E+03  0.45589785767E+03  0.17120000000E+03 0.  0.
        998    1    1    2    0    0  0.23413742037E+02  0.95189588100E+02  0.87778742807E+03  0.88330064524E+03  0.10000000000E+02 0.  1.
</event>
<event>
 5    1  0.1360042E-008  0.3917027E+03  0.7957747E-01  0.3401733E+00
         13   -1    0    0    0    0  0.00000000000E+00  0.00000000000E+00  0.14999999963E+04  0.15000000000E+04  0.10566000000E+00 0. -1.
        994   -1    0    0    0    0 -0.00000000000E+00 -0.00000000000E+00  0.11368683772E-12  0.17120000000E+03  0.17120000000E+03 0.  0.
         13    1    1    2    0    0 -0.39325978487E+01 -0.49688626865E+02  0.45922682974E+02  0.67774102290E+02  0.10566000000E+00 0. -1.
        994    1    1    2    0    0 -0.12241110715E+02  0.38546798498E+02  0.29129659796E+02  0.17830781684E+03  0.17120000000E+03 0.  0.
        998    1    1    2    0    0  0.16173708564E+02  0.11141828367E+02  0.14249476535E+04  0.14251180809E+04  0.10000000000E+02 0. -1.
</event>
<event>
 5    1  0.1360042E-008  0.3818673E+03  0.7957747E-01  0.3443068E+00
         13   -1    0    0    0    0  0.00000000000E+00  0.00000000000E+00  0.14999999963E+04  0.15000000000E+04  0.10566000000E+00 0.  1.
        994   -1    0    0    0    0 -0.00000000000E+00 -0.00000000000E+00  0.11368683772E-12  0.17120000000E+03  0.17120000000E+03 0.  0.
         13    1    1    2    0    0 -0.27682803960E+02  0.25088352117E+02  0.20835616284E+03  0.21167915534E+03  0.10566000000E+00 0.  1.
        994    1    1    2    0    0  0.22862005704E+02 -0.14551653908E+02  0.56373693384E+01  0.17342330256E+03  0.17120000000E+03 0.  0.
        998    1    1    2    0    0  0.48207982564E+01 -0.10536698209E+02  0.12860064641E+04  0.12860975421E+04  0.10000000000E+02 0.  1.
</event>
<event>
 5    1  0.1360042E-008  0.3848435E+03  0.7957747E-01  0.3430336E+00
         13   -1    0    0    0    0  0.00000000000E+00  0.00000000000E+00  0.14999999963E+04  0.15000000000E+04  0.10566000000E+00 0. -1.
        994   -1    0    0    0    0 -0.00000000000E+00 -0.00000000000E+00  0.11368683772E-12  0.17120000000E+03  0.17120000000E+03 0.  0.
         13    1    1    2    0    0 -0.32868196642E+01  0.12018551979E+02  0.45058430539E+02  0.46749567933E+02  0.10566000000E+00 0. -1.
        994    1    1    2    0    0  0.42943389857E+01 -0.85317900262E+01  0.20080814215E+01  0.17147800203E+03  0.17120000000E+03 0.  0.
        998    1    1    2    0    0 -0.10075193215E+01 -0.34867619526E+01  0.14529334843E+04  0.14529724300E+04  0.10000000000E+02 0. -1.
</event>
<event>
 5    1  0.1360042E-008  0.3846680E+03  0.7957747E-01  0.3431081E+00
         13   -1    0    0    0    0  0.00000000000E+00  0.00000000000E+00  0.14999999963E+04  0.15000000000E+04  0.10566000000E+00 0.  1.
        994   -1    0    0    0    0 -0.00000000000E+00 -0.00000000000E+00  0.11368683772E-12  0.17120000000E+03  0.17120000000E+03 0.  0.
         13    1    1    2    0    0  0.12965564459E+01 -0.10998660790E+02  0.33008118794E+02  0.34816643551E+02  0.10566000000E+00 0.  1.
        994    1    1    2    0    0 -0.40574516124E+01  0.12784467445E+02  0.23875685707E+01  0.17174121813E+03  0.17120000000E+03 0.  0.
        998    1    1    2    0    0  0.27608951665E+01 -0.17858066551E+01  0.14646043089E+04  0.14646421383E+04  0.10000000000E+02 0.  1.
</event>
<event>
 5    1  0.1360043E-008  0.3857963E+03  0.7957747E-01  0.3426302E+00
         13   -1    0    0    0    0  0.00000000000E+00  0.00000000000E+00  0.14999999963E+04  0.15000000000E+04  0.10566000000E+00 0. -1.
        994   -1    0    0    0    0 -0.00000000000E+00 -0.00000000000E+00  0.11368683772E-12  0.17120000000E+03  0.17120000000E+03 0.  0.
         13    1    1    2    0    0 -0.17965441200E+00 -0.10755423758E+02  0.46019273278E+02  0.47259878258E+02  0.10566000000E+00 0. -1.
        994    1    1    2    0    0 -0.23443225822E+01  0.11534843818E+02  0.16899144368E+01  0.17161248288E+03  0.17120000000E+03 0.  0.
        998    1    1    2    0    0  0.25239769942E+01 -0.77942005943E+00  0.14522908086E+04  0.14523276389E+04  0.10000000000E+02 0. -1.
</event>
<event>
 5    1  0.1360042E-008  0.3835323E+03  0.7957747E-01  0.3435921E+00
         13   -1    0    0    0    0  0.00000000000E+00  0.00000000000E+00  0.14999999963E+04  0.15000000000E+04  0.10566000000E+00 0. -1.
        994   -1    0    0    0    0 -0.00000000000E+00 -0.00000000000E+00  0.11368683772E-12  0.17120000000E+03  0.17120000000E+03 0.  0.
         13    1    1    2    0    0  0.21104306115E+02 -0.17149326003E+01  0.10647737225E+03  0.10856230790E+03  0.10566000000E+00 0. -1.
        994    1    1    2    0    0  0.45447435097E+01  0.64498891436E+01  0.25663306009E+01  0.17140093878E+03  0.17120000000E+03 0.  0.
        998    1    1    2    0    0 -0.25649049625E+02 -0.47349565433E+01  0.13909562934E+04  0.13912367533E+04  0.10000000000E+02 0. -1.
</event>
<event>
 5    1  0.1360042E-008  0.3827780E+03  0.7957747E-01  0.3439151E+00
         13   -1    0    0    0    0  0.00000000000E+00  0.00000000000E+00  0.14999999963E+04  0.15000000000E+04  0.10566000000E+00 0.  1.
        994   -1    0    0    0    0 -0.00000000000E+00 -0.00000000000E+00  0.11368683772E-12  0.17120000000E+03  0.17120000000E+03 0.  0.
         13    1    1    2    0    0 -0.50231801314E+02 -0.24858631473E+01  0.30117977570E+03  0.30535009716E+03  0.10566000000E+00 0.  1.
        994    1    1    2    0    0  0.69085881623E+02  0.15409830679E+02  0.19515201060E+02  0.18628098398E+03  0.17120000000E+03 0.  0.
        998    1    1    2    0    0 -0.18854080309E+02 -0.12923967532E+02  0.11793050195E+04  0.11795689189E+04  0.10000000000E+02 0.  1.
</event>
<event>
 5    1  0.1360042E-008  0.3851565E+03  0.7957747E-01  0.3429009E+00
         13   -1    0    0    0    0  0.00000000000E+00  0.00000000000E+00  0.14999999963E+04  0.15000000000E+04  0.10566000000E+00 0.  1.
        994   -1    0    0    0    0 -0.00000000000E+00 -0.00000000000E+00  0.11368683772E-12  0.17120000000E+03  0.17120000000E+03 0.  0.
         13    1    1    2    0    0  0.77335295051E+01  0.64103261932E+01  0.32826815124E+02  0.34329443860E+02  0.10566000000E+00 0.  1.
        994    1    1    2    0    0 -0.78034953119E+01  0.34568741548E+01  0.17919476066E+01  0.17142198107E+03  0.17120000000E+03 0.  0.
        998    1    1    2    0    0  0.69965806788E-01 -0.98672003480E+01  0.14653812335E+04  0.14654485751E+04  0.10000000000E+02 0.  1.
</event>
<event>
 5    1  0.1360042E-008  0.3816670E+03  0.7957747E-01  0.3443932E+00
         13   -1    0    0    0    0  0.00000000000E+00  0.00000000000E+00  0.14999999963E+04  0.15000000000E+04  0.10566000000E+00 0.  1.
        994   -1    0    0    0    0 -0.00000000000E+00 -0.00000000000E+00  0.11368683772E-12  0.17120000000E+03  0.17120000000E+03 0.  0.
         13    1    1    2    0    0 -0.17366113719E+02 -0.20251712389E+02  0.98943809098E+02  0.10247732570E+03  0.10566000000E+00 0.  1.
        994    1    1    2    0    0  0.21378415369E+02  0.21476831082E+02  0.63529424818E+01  0.17397727092E+03  0.17120000000E+03 0.  0.
        998    1    1    2    0    0 -0.40123016498E+01 -0.12251186929E+01  0.13947032447E+04  0.13947454034E+04  0.10000000000E+02 0.  0.
</event>
<event>
 5    1  0.1360042E-008  0.3798073E+03  0.7957747E-01  0.3451998E+00
         13   -1    0    0    0    0  0.00000000000E+00  0.00000000000E+00  0.14999999963E+04  0.15000000000E+04  0.10566000000E+00 0.  1.
        994   -1    0    0    0    0 -0.00000000000E+00 -0.00000000000E+00  0.11368683772E-12  0.17120000000E+03  0.17120000000E+03 0.  0.
         13    1    1    2    0    0  0.30943703246E+02 -0.12887504277E+02  0.15066996317E+03  0.15435365076E+03  0.10566000000E+00 0.  1.
        994    1    1    2    0    0  0.25848923133E+01  0.20910472123E+01  0.42674302869E+01  0.17128544920E+03  0.17120000000E+03 0.  0.
        998    1    1    2    0    0 -0.33528595560E+02  0.10796457065E+02  0.13450626028E+04  0.13455609000E+04  0.10000000000E+02 0.  1.
</event>
<event>
 5    1  0.1360042E-008  0.3839082E+03  0.7957747E-01  0.3434316E+00
         13   -1    0    0    0    0  0.00000000000E+00  0.00000000000E+00  0.14999999963E+04  0.15000000000E+04  0.10566000000E+00 0.  1.
        994   -1    0    0    0    0 -0.00000000000E+00 -0.00000000000E+00  0.11368683772E-12  0.17120000000E+03  0.17120000000E+03 0.  0.
         13    1    1    2    0    0 -0.67825514062E+01  0.88401048555E+01  0.28362237893E+02  0.30472580458E+02  0.10566000000E+00 0.  1.
        994    1    1    2    0    0  0.30603029241E+01 -0.21853384336E+01  0.22198311971E+01  0.17125568256E+03  0.17120000000E+03 0.  0.
        998    1    1    2    0    0  0.37222484822E+01 -0.66547664219E+01  0.14694179272E+04  0.14694717370E+04  0.10000000000E+02 0.  1.
</event>
<event>
 5    1  0.1360042E-008  0.3849682E+03  0.7957747E-01  0.3429807E+00
         13   -1    0    0    0    0  0.00000000000E+00  0.00000000000E+00  0.14999999963E+04  0.15000000000E+04  0.10566000000E+00 0. -1.
        994   -1    0    0    0    0 -0.00000000000E+00 -0.00000000000E+00  0.11368683772E-12  0.17120000000E+03  0.17120000000E+03 0.  0.
         13    1    1    2    0    0 -0.21292170772E+01  0.11157085170E+02  0.36161976139E+02  0.37904007666E+02  0.10566000000E+00 0. -1.
        994    1    1    2    0    0 -0.36235797509E+02 -0.32304503965E+02  0.94355532054E+01  0.17819956134E+03  0.17120000000E+03 0.  0.
        998    1    1    2    0    0  0.38365014586E+02  0.21147418795E+02  0.14544024669E+04  0.14550964310E+04  0.10000000000E+02 0. -1.
</event>
<event>
 5    1  0.1360042E-008  0.3748476E+03  0.7957747E-01  0.3473905E+00
         13   -1    0    0    0    0  0.00000000000E+00  0.00000000000E+00  0.14999999963E+04  0.15000000000E+04  0.10566000000E+00 0.  1.
        994   -1    0    0    0    0 -0.00000000000E+00 -0.00000000000E+00  0.11368683772E-12  0.17120000000E+03  0.17120000000E+03 0.  0.
         13    1    1    2    0    0  0.13502261560E+03 -0.13667008527E+03  0.83929482596E+03  0.86100269162E+03  0.10566000000E+00 0.  1.
        994    1    1    2    0    0 -0.10505594688E+03  0.20296490382E+03  0.21231983257E+03  0.35583796236E+03  0.17120000000E+03 0.  0.
        998    1    1    2    0    0 -0.29966668721E+02 -0.66294818551E+02  0.44838533775E+03  0.45435934602E+03  0.10000000000E+02 0.  1.
</event>
<event>
 5    1  0.1360042E-008  0.3848648E+03  0.7957747E-01  0.3430246E+00
         13   -1    0    0    0    0  0.00000000000E+00  0.00000000000E+00  0.14999999963E+04  0.15000000000E+04  0.10566000000E+00 0.  1.
        994   -1    0    0    0    0 -0.00000000000E+00 -0.00000000000E+00  0.11368683772E-12  0.17120000000E+03  0.17120000000E+03 0.  0.
         13    1    1    2    0    0 -0.82349367030E+01 -0.92480453948E+01  0.43921577653E+02  0.45633942123E+02  0.10566000000E+00 0.  1.
        994    1    1    2    0    0  0.32399048965E+01  0.14745685917E+02  0.24475625358E+01  0.17188182801E+03  0.17120000000E+03 0.  0.
        998    1    1    2    0    0  0.49950318065E+01 -0.54976405225E+01  0.14536308561E+04  0.14536842299E+04  0.10000000000E+02 0.  1.
</event>
<event>
 5    1  0.1360042E-008  0.3810870E+03  0.7957747E-01  0.3446439E+00
         13   -1    0    0    0    0  0.00000000000E+00  0.00000000000E+00  0.14999999963E+04  0.15000000000E+04  0.10566000000E+00 0. -1.
        994   -1    0    0    0    0 -0.00000000000E+00 -0.00000000000E+00  0.11368683772E-12  0.17120000000E+03  0.17120000000E+03 0.  0.
         13    1    1    2    0    0 -0.41052409515E+00  0.19434675685E+02  0.54275390133E+02  0.57651576623E+02  0.10566000000E+00 0. -1.
        994    1    1    2    0    0 -0.73811930823E+01  0.26846939995E+00  0.37671685993E+01  0.17140065824E+03  0.17120000000E+03 0.  0.
        998    1    1    2    0    0  0.77917171774E+01 -0.19703145085E+02  0.14419574375E+04  0.14421477651E+04  0.10000000000E+02 0. -1.
</event>
<event>
 5    1  0.1360042E-008  0.3722341E+03  0.7957747E-01  0.3485686E+00
         13   -1    0    0    0    0  0.00000000000E+00  0.00000000000E+00  0.14999999963E+04  0.15000000000E+04  0.10566000000E+00 0.  1.
        994   -1    0    0    0    0 -0.00000000000E+00 -0.00000000000E+00  0.11368683772E-12  0.17120000000E+03  0.17120000000E+03 0.  0.
         13    1    1    2    0    0  0.69752686367E+02  0.10524734592E+03  0.44624081053E+03  0.46375997372E+03  0.10566000000E+00 0.  1.
        994    1    1    2    0    0 -0.68240136444E+02 -0.10479628330E+03  0.69474664951E+02  0.22310344302E+03  0.17120000000E+03 0.  0.
        998    1    1    2    0    0 -0.15125499230E+01 -0.45106261711E+00  0.98428452080E+03  0.98433658326E+03  0.10000000000E+02 0.  1.
</event>
<event>
 5    1  0.1360042E-008  0.3797702E+03  0.7957747E-01  0.3452160E+00
         13   -1    0    0    0    0  0.00000000000E+00  0.00000000000E+00  0.14999999963E+04  0.15000000000E+04  0.10566000000E+00 0. -1.
        994   -1    0    0    0    0 -0.00000000000E+00 -0.00000000000E+00  0.11368683772E-12  0.17120000000E+03  0.17120000000E+03 0.  0.
         13    1    1    2    0    0 -0.34146810557E+02  0.39589680356E+02  0.25953630105E+03  0.26474978789E+03  0.10566000000E+00 0. -1.
        994    1    1    2    0    0  0.31389768699E+02 -0.46283798294E+02  0.14784026249E+02  0.18070837002E+03  0.17120000000E+03 0.  0.
        998    1    1    2    0    0  0.27570418586E+01  0.66941179376E+01  0.12256796690E+04  0.12257418421E+04  0.10000000000E+02 0.  0.
</event>
<event>
 5    1  0.1360042E-008  0.3853392E+03  0.7957747E-01  0.3428235E+00
         13   -1    0    0    0    0  0.00000000000E+00  0.00000000000E+00  0.14999999963E+04  0.15000000000E+04  0.10566000000E+00 0.  1.
        994   -1    0    0    0    0 -0.00000000000E+00 -0.00000000000E+00  0.11368683772E-12  0.17120000000E+03  0.17120000000E+03 0.  0.
         13    1    1    2    0    0  0.13751811663E+02 -0.43560046950E+01  0.73354411228E+02  0.74759400155E+02  0.10566000000E+00 0.  1.
        994    1    1    2    0    0 -0.88708680463E+00  0.17450827981E+02  0.24654401210E+01  0.17210705016E+03  0.17120000000E+03 0.  0.
        998    1    1    2    0    0 -0.12864724858E+02 -0.13094823286E+02  0.14241801449E+04  0.14243335497E+04  0.10000000000E+02 0.  1.
</event>
<event>
 5    1  0.1360042E-008  0.3790088E+03  0.7957747E-01  0.3455486E+00
         13   -1    0    0    0    0  0.00000000000E+00  0.00000000000E+00  0.14999999963E+04  0.15000000000E+04  0.10566000000E+00 0.  1.
        994   -1    0    0    0    0 -0.00000000000E+00 -0.00000000000E+00  0.11368683772E-12  0.17120000000E+03  0.17120000000E+03 0.  0.
         13    1    1    2    0    0 -0.37443853562E+00 -0.23954675249E+02  0.63551024992E+02  0.67916939066E+02  0.10566000000E+00 0.  1.
        994    1    1    2    0    0  0.54215512789E+01  0.16980010297E+01  0.47425899826E+01  0.17135988033E+03  0.17120000000E+03 0.  0.
        998    1    1    2    0    0 -0.50471127433E+01  0.22256674220E+02  0.14317063813E+04  0.14319231806E+04  0.10000000000E+02 0.  1.
</event>
<event>
 5    1  0.1360042E-008  0.3847316E+03  0.7957747E-01  0.3430811E+00
         13   -1    0    0    0    0  0.00000000000E+00  0.00000000000E+00  0.14999999963E+04  0.15000000000E+04  0.10566000000E+00 0. -1.
        994   -1    0    0    0    0 -0.00000000000E+00 -0.00000000000E+00  0.11368683772E-12  0.17120000000E+03  0.17120000000E+03 0.  0.
         13    1    1    2    0    0 -0.13579126430E+02 -0.10685026688E+02  0.68400960444E+02  0.70549734398E+02  0.10566000000E+00 0. -1.
        994    1    1    2    0    0  0.33076280591E+02  0.32797714714E+02  0.89380216232E+01  0.17764869450E+03  0.17120000000E+03 0.  0.
        998    1    1    2    0    0 -0.19497154161E+02 -0.22112688025E+02  0.14226610142E+04  0.14230015711E+04  0.10000000000E+02 0. -1.
</event>
<event>
 5    1  0.1360042E-008  0.3945641E+03  0.7957747E-01  0.3390095E+00
         13   -1    0    0    0    0  0.00000000000E+00  0.00000000000E+00  0.14999999963E+04  0.15000000000E+04  0.10566000000E+00 0. -1.
        994   -1    0    0    0    0 -0.00000000000E+00 -0.00000000000E+00  0.11368683772E-12  0.17120000000E+03  0.17120000000E+03 0.  0.
         13    1    1    2    0    0 -0.23320026648E+02  0.98056054717E+01  0.23324293644E+01  0.25405214667E+02  0.10566000000E+00 0. -1.
        994    1    1    2    0    0  0.25839113023E+02 -0.88258374385E+01  0.27429577059E+02  0.17552030329E+03  0.17120000000E+03 0.  0.
        998    1    1    2    0    0 -0.25190863753E+01 -0.97976803319E+00  0.14702379899E+04  0.14702744820E+04  0.10000000000E+02 0. -1.
</event>
<event>
 5    1  0.1360042E-008  0.3824563E+03  0.7957747E-01  0.3440532E+00
         13   -1    0    0    0    0  0.00000000000E+00  0.00000000000E+00  0.14999999963E+04  0.15000000000E+04  0.10566000000E+00 0. -1.
        994   -1    0    0    0    0 -0.00000000000E+00 -0.00000000000E+00  0.11368683772E-12  0.17120000000E+03  0.17120000000E+03 0.  0.
         13    1    1    2    0    0  0.19342174997E+02  0.21459973879E+02  0.15492203524E+03  0.15759282464E+03  0.10566000000E+00 0. -1.
        994    1    1    2    0    0 -0.63994951412E+01 -0.34207937806E+01  0.30729436689E+01  0.17138126604E+03  0.17120000000E+03 0.  0.
        998    1    1    2    0    0 -0.12942679856E+02 -0.18039180099E+02  0.13420050174E+04  0.13422259093E+04  0.10000000000E+02 0. -1.
</event>
<event>
 5    1  0.1360042E-008  0.3792328E+03  0.7957747E-01  0.3454506E+00
         13   -1    0    0    0    0  0.00000000000E+00  0.00000000000E+00  0.14999999963E+04  0.15000000000E+04  0.10566000000E+00 0. -1.
        994   -1    0    0    0    0 -0.00000000000E+00 -0.00000000000E+00  0.11368683772E-12  0.17120000000E+03  0.17120000000E+03 0.  0.
         13    1    1    2    0    0  0.66610060509E+01 -0.83001979318E+01  0.10428360202E+02  0.14900474753E+02  0.10566000000E+00 0. -1.
        994    1    1    2    0    0 -0.82273519720E+01  0.80265993515E+01  0.49638439244E+01  0.17165720307E+03  0.17120000000E+03 0.  0.
        998    1    1    2    0    0  0.15663459211E+01  0.27359858032E+00  0.14846077922E+04  0.14846423222E+04  0.10000000000E+02 0. -1.
</event>
<event>
 5    1  0.1360042E-008  0.3751810E+03  0.7957747E-01  0.3472414E+00
         13   -1    0    0    0    0  0.00000000000E+00  0.00000000000E+00  0.14999999963E+04  0.15000000000E+04  0.10566000000E+00 0. -1.
        994   -1    0    0    0    0 -0.00000000000E+00 -0.00000000000E+00  0.11368683772E-12  0.17120000000E+03  0.17120000000E+03 0.  0.
         13    1    1    2    0    0  0.11730808141E+02  0.29794378041E+02  0.72114718561E+02  0.78904122958E+02  0.10566000000E+00 0. -1.
        994    1    1    2    0    0  0.21453599314E+02 -0.43429341425E+02  0.14598763505E+02  0.17851870635E+03  0.17120000000E+03 0.  0.
        998    1    1    2    0    0 -0.33184407455E+02  0.13634963384E+02  0.14132865142E+04  0.14137771707E+04  0.10000000000E+02 0. -1.
</event>
<event>
 5    1  0.1360042E-008  0.3848378E+03  0.7957747E-01  0.3430360E+00
         13   -1    0    0    0    0  0.00000000000E+00  0.00000000000E+00  0.14999999963E+04  0.15000000000E+04  0.10566000000E+00 0. -1.
        994   -1    0    0    0    0 -0.00000000000E+00 -0.00000000000E+00  0.11368683772E-12  0.17120000000E+03  0.17120000000E+03 0.  0.
         13    1    1    2    0    0 -0.13050098986E+02 -0.96796107188E+01  0.86200114418E+02  0.87718132886E+02  0.10566000000E+00 0. -1.
        994    1    1    2    0    0 -0.69270689349E+01  0.14073181374E+01  0.18750964195E+01  0.17135612278E+03  0.17120000000E+03 0.  0.
        998    1    1    2    0    0  0.19977167921E+02  0.82722925814E+01  0.14119247854E+04  0.14121257443E+04  0.10000000000E+02 0. -1.
</event>
<event>
 5    1  0.1360042E-008  0.3814686E+03  0.7957747E-01  0.3444789E+00
         13   -1    0    0    0    0  0.00000000000E+00  0.00000000000E+00  0.14999999963E+04  0.15000000000E+04  0.10566000000E+00 0.  1.
        994   -1    0    0    0    0 -0.00000000000E+00 -0.00000000000E+00  0.11368683772E-12  0.17120000000E+03  0.17120000000E+03 0.  0.
         13    1    1    2    0    0  0.14024667039E+02  0.19555486361E+02  0.80258341840E+02  0.83788548927E+02  0.10566000000E+00 0.  1.
        994    1    1    2    0    0 -0.14884095278E+02 -0.19534551532E+02  0.54027032067E+01  0.17303688681E+03  0.17120000000E+03 0.  0.
        998    1    1    2    0    0  0.85942823894E+00 -0.20934829031E-01  0.14143389512E+04  0.14143745643E+04  0.10000000000E+02 0.  1.
</event>
<event>
 5    1  0.1360042E-008  0.3833370E+03  0.7957747E-01  0.3436756E+00
         13   -1    0    0    0    0  0.00000000000E+00  0.00000000000E+00  0.14999999963E+04  0.15000000000E+04  0.10566000000E+00 0.  1.
        994   -1    0    0    0    0 -0.00000000000E+00 -0.00000000000E+00  0.11368683772E-12  0.17120000000E+03  0.17120000000E+03 0.  0.
         13    1    1    2    0    0 -0.23546442430E+02 -0.11106580331E+02  0.12337014590E+03  0.12608725210E+03  0.10566000000E+00 0.  1.
        994    1    1    2    0    0  0.33407822166E+02  0.18250655889E+01  0.61681933299E+01  0.17454770137E+03  0.17120000000E+03 0.  0.
        998    1    1    2    0    0 -0.98613797362E+01  0.92815147422E+01  0.13704616570E+04  0.13705650465E+04  0.10000000000E+02 0.  1.
</event>
<event>
 5    1  0.1360042E-008  0.3826678E+03  0.7957747E-01  0.3439624E+00
         13   -1    0    0    0    0  0.00000000000E+00  0.00000000000E+00  0.14999999963E+04  0.15000000000E+04  0.10566000000E+00 0.  1.
        994   -1    0    0    0    0 -0.00000000000E+00 -0.00000000000E+00  0.11368683772E-12  0.17120000000E+03  0.17120000000E+03 0.  0.
         13    1    1    2    0    0 -0.93483685331E+01 -0.24783611575E+02  0.12414369779E+03  0.12693812769E+03  0.10566000000E+00 0.  1.
        994    1    1    2    0    0  0.41288792692E+02  0.43282527584E+01  0.85247692128E+01  0.17636782548E+03  0.17120000000E+03 0.  0.
        998    1    1    2    0    0 -0.31940424159E+02  0.20455358817E+02  0.13673315293E+04  0.13678940468E+04  0.10000000000E+02 0.  1.
</event>
<event>
 5    1  0.1360042E-008  0.3811936E+03  0.7957747E-01  0.3445978E+00
         13   -1    0    0    0    0  0.00000000000E+00  0.00000000000E+00  0.14999999963E+04  0.15000000000E+04  0.10566000000E+00 0. -1.
        994   -1    0    0    0    0 -0.00000000000E+00 -0.00000000000E+00  0.11368683772E-12  0.17120000000E+03  0.17120000000E+03 0.  0.
         13    1    1    2    0    0 -0.13561515276E+02 -0.15189504015E+02  0.60897270316E+02  0.64211559900E+02  0.10566000000E+00 0. -1.
        994    1    1    2    0    0 -0.29933651758E+01  0.25023898114E+01  0.35825488744E+01  0.17128192212E+03  0.17120000000E+03 0.  0.
        998    1    1    2    0    0  0.16554880452E+02  0.12687114204E+02  0.14355201771E+04  0.14357065180E+04  0.10000000000E+02 0. -1.
</event>
<event>
 5    1  0.1360042E-008  0.3823952E+03  0.7957747E-01  0.3440795E+00
         13   -1    0    0    0    0  0.00000000000E+00  0.00000000000E+00  0.14999999963E+04  0.15000000000E+04  0.10566000000E+00 0. -1.
        994   -1    0    0    0    0 -0.00000000000E+00 -0.00000000000E+00  0.11368683772E-12  0.17120000000E+03  0.17120000000E+03 0.  0.
         13    1    1    2    0    0  0.11520567124E+02 -0.82303863866E+00  0.22038929947E+02  0.24882251842E+02  0.10566000000E+00 0. -1.
        994    1    1    2    0    0 -0.25919741945E+01 -0.29908138859E+01  0.29808513875E+01  0.17127168118E+03  0.17120000000E+03 0.  0.
        998    1    1    2    0    0 -0.89285929298E+01  0.38138525246E+01  0.14749802149E+04  0.14750460670E+04  0.10000000000E+02 0. -1.
</event>
<event>
 5    1  0.1360042E-008  0.3696700E+03  0.7957747E-01  0.3497409E+00
         13   -1    0    0    0    0  0.00000000000E+00  0.00000000000E+00  0.14999999963E+04  0.15000000000E+04  0.10566000000E+00 0. -1.
        994   -1    0    0    0    0 -0.00000000000E+00 -0.00000000000E+00  0.11368683772E-12  0.17120000000E+03  0.17120000000E+03 0.  0.
         13    1    1    2    0    0  0.30602212887E+02  0.18550215967E+02  0.66126050483E+02  0.75188241517E+02  0.10566000000E+00 0. -1.
        994    1    1    2    0    0 -0.37879007203E+02  0.35122342244E+02  0.18735976047E+02  0.17980232176E+03  0.17120000000E+03 0.  0.
        998    1    1    2    0    0  0.72767943160E+01 -0.53672558211E+02  0.14151379697E+04  0.14162094367E+04  0.10000000000E+02 0. -1.
</event>
<event>
 5    1  0.1360042E-008  0.3838173E+03  0.7957747E-01  0.3434704E+00
         13   -1    0    0    0    0  0.00000000000E+00  0.00000000000E+00  0.14999999963E+04  0.15000000000E+04  0.10566000000E+00 0.  1.
        994   -1    0    0    0    0 -0.00000000000E+00 -0.00000000000E+00  0.11368683772E-12  0.17120000000E+03  0.17120000000E+03 0.  0.
         13    1    1    2    0    0 -0.17909385951E+02  0.13315980951E+02  0.12091490164E+03  0.12295725297E+03  0.10566000000E+00 0.  1.
        994    1    1    2    0    0  0.15935887501E+01 -0.36275612441E+01  0.22703070736E+01  0.17126089168E+03  0.17120000000E+03 0.  0.
        998    1    1    2    0    0  0.16315797201E+02 -0.96884197072E+01  0.13768147876E+04  0.13769818554E+04  0.10000000000E+02 0.  1.
</event>
<event>
 5    1  0.1360042E-008  0.3780018E+03  0.7957747E-01  0.3459906E+00
         13   -1    0    0    0    0  0.00000000000E+00  0.00000000000E+00  0.14999999963E+04  0.15000000000E+04  0.10566000000E+00 0.  1.
        994   -1    0    0    0    0 -0.00000000000E+00 -0.00000000000E+00  0.11368683772E-12  0.17120000000E+03  0.17120000000E+03 0.  0.
         13    1    1    2    0    0  0.14647680284E+02 -0.38415606965E+01  0.20150699991E+02  0.25206626122E+02  0.10566000000E+00 0.  1.
        994    1    1    2    0    0 -0.92693033985E+01  0.26923763127E+01  0.54588511308E+01  0.17155875941E+03  0.17120000000E+03 0.  0.
        998    1    1    2    0    0 -0.53783768856E+01  0.11491843838E+01  0.14743904452E+04  0.14744346145E+04  0.10000000000E+02 0.  1.
</event>
<event>
 5    1  0.1360042E-008  0.3853847E+03  0.7957747E-01  0.3428042E+00
         13   -1    0    0    0    0  0.00000000000E+00  0.00000000000E+00  0.14999999963E+04  0.15000000000E+04  0.10566000000E+00 0.  1.
        994   -1    0    0    0    0 -0.00000000000E+00 -0.00000000000E+00  0.11368683772E-12  0.17120000000E+03  0.17120000000E+03 0.  0.
         13    1    1    2    0    0 -0.65184213563E+01  0.17312038915E+02  0.11183268896E+03  0.11335236209E+03  0.10566000000E+00 0.  1.
        994    1    1    2    0    0  0.96458182437E+01 -0.16781395675E+02  0.26708224110E+01  0.17231143416E+03  0.17120000000E+03 0.  0.
        998    1    1    2    0    0 -0.31273968874E+01 -0.53064324011E+00  0.13854964849E+04  0.13855362037E+04  0.10000000000E+02 0.  1.
</event>
<event>
 5    1  0.1360042E-008  0.3998625E+03  0.7957747E-01  0.3368985E+00
         13   -1    0    0    0    0  0.00000000000E+00  0.00000000000E+00  0.14999999963E+04  0.15000000000E+04  0.10566000000E+00 0.  1.
        994   -1    0    0    0    0 -0.00000000000E+00 -0.00000000000E+00  0.11368683772E-12  0.17120000000E+03  0.17120000000E+03 0.  0.
         13    1    1    2    0    0 -0.87108879278E+02 -0.10962769242E+03  0.27533914386E+03  0.30889778746E+03  0.10566000000E+00 0.  1.
        994    1    1    2    0    0  0.95976815193E+02  0.10020191695E+03  0.10779838938E+03  0.24532000727E+03  0.17120000000E+03 0.  0.
        998    1    1    2    0    0 -0.88679359154E+01  0.94257754773E+01  0.11168624630E+04  0.11169822053E+04  0.10000000000E+02 0.  1.
</event>
<event>
 5    1  0.1360042E-008  0.3749927E+03  0.7957747E-01  0.3473256E+00
         13   -1    0    0    0    0  0.00000000000E+00  0.00000000000E+00  0.14999999963E+04  0.15000000000E+04  0.10566000000E+00 0. -1.
        994   -1    0    0    0    0 -0.00000000000E+00 -0.00000000000E+00  0.11368683772E-12  0.17120000000E+03  0.17120000000E+03 0.  0.
         13    1    1    2    0    0  0.18572404542E+02 -0.19010770631E+02  0.52215980676E+02  0.58590642704E+02  0.10566000000E+00 0. -1.
        994    1    1    2    0    0  0.43598400582E+01  0.12001550075E+02  0.72369220316E+01  0.17182799088E+03  0.17120000000E+03 0.  0.
        998    1    1    2    0    0 -0.22932244600E+02  0.70092205552E+01  0.14405470936E+04  0.14407813664E+04  0.10000000000E+02 0. -1.
</event>
<event>
 5    1  0.1360042E-008  0.3796761E+03  0.7957747E-01  0.3452570E+00
         13   -1    0    0    0    0  0.00000000000E+00  0.00000000000E+00  0.14999999963E+04  0.15000000000E+04  0.10566000000E+00 0. -1.
        994   -1    0    0    0    0 -0.00000000000E+00 -0.00000000000E+00  0.11368683772E-12  0.17120000000E+03  0.17120000000E+03 0.  0.
         13    1    1    2    0    0  0.89327752413E+01 -0.14468029196E+02  0.31336245356E+02  0.35652346057E+02  0.10566000000E+00 0. -1.
        994    1    1    2    0    0 -0.12342364286E+02  0.13192876656E+02  0.53897362742E+01  0.17223494189E+03  0.17120000000E+03 0.  0.
        998    1    1    2    0    0  0.34095890445E+01  0.12751525400E+01  0.14632740146E+04  0.14633127121E+04  0.10000000000E+02 0. -1.
</event>
<event>
 5    1  0.1360042E-008  0.3783892E+03  0.7957747E-01  0.3458202E+00
         13   -1    0    0    0    0  0.00000000000E+00  0.00000000000E+00  0.14999999963E+04  0.15000000000E+04  0.10566000000E+00 0. -1.
        994   -1    0    0    0    0 -0.00000000000E+00 -0.00000000000E+00  0.11368683772E-12  0.17120000000E+03  0.17120000000E+03 0.  0.
         13    1    1    2    0    0  0.21010207082E+02 -0.16378508959E+02  0.65594985337E+02  0.70798288275E+02  0.10566000000E+00 0. -1.
        994    1    1    2    0    0 -0.23067625413E+02  0.24073298290E+02  0.86935374318E+01  0.17463291965E+03  0.17120000000E+03 0.  0.
        998    1    1    2    0    0  0.20574183314E+01 -0.76947893316E+01  0.14257114735E+04  0.14257687921E+04  0.10000000000E+02 0. -1.
</event>
<event>
 5    1  0.1360042E-008  0.3791028E+03  0.7957747E-01  0.3455074E+00
         13   -1    0    0    0    0  0.00000000000E+00  0.00000000000E+00  0.14999999963E+04  0.15000000000E+04  0.10566000000E+00 0. -1.
        994   -1    0    0    0    0 -0.00000000000E+00 -0.00000000000E+00  0.11368683772E-12  0.17120000000E+03  0.17120000000E+03 0.  0.
         13    1    1    2    0    0  0.32097350311E+02 -0.10235241805E+02  0.12725001264E+03  0.13163425448E+03  0.10566000000E+00 0. -1.
        994    1    1    2    0    0 -0.22488447122E+02 -0.25581902136E+02  0.84864064104E+01  0.17476161782E+03  0.17120000000E+03 0.  0.
        998    1    1    2    0    0 -0.96089031895E+01  0.35817143941E+02  0.13642635772E+04  0.13648041277E+04  0.10000000000E+02 0. -1.
</event>
<event>
 5    1  0.1360042E-008  0.3803279E+03  0.7957747E-01  0.3449732E+00
         13   -1    0    0    0    0  0.00000000000E+00  0.00000000000E+00  0.14999999963E+04  0.15000000000E+04  0.10566000000E+00 0.  1.
        994   -1    0    0    0    0 -0.00000000000E+00 -0.00000000000E+00  0.11368683772E-12  0.17120000000E+03  0.17120000000E+03 0.  0.
         13    1    1    2    0    0  0.49135406863E+02 -0.90380289648E+02  0.33798134070E+03  0.35329064917E+03  0.10566000000E+00 0.  1.
        994    1    1    2    0    0  0.23330720228E+02  0.71462349313E+02  0.37307868569E+02  0.19066333400E+03  0.17120000000E+03 0.  0.
        998    1    1    2    0    0 -0.72466127091E+02  0.18917940335E+02  0.11247107870E+04  0.11272460168E+04  0.10000000000E+02 0.  1.
</event>
<event>
 5    1  0.1360042E-008  0.3752703E+03  0.7957747E-01  0.3472015E+00
         13   -1    0    0    0    0  0.00000000000E+00  0.00000000000E+00  0.14999999963E+04  0.15000000000E+04  0.10566000000E+00 0.  1.
        994   -1    0    0    0    0 -0.00000000000E+00 -0.00000000000E+00  0.11368683772E-12  0.17120000000E+03  0.17120000000E+03 0.  0.
         13    1    1    2    0    0  0.36419105851E+02 -0.84565376800E+02  0.50744429974E+03  0.51572995135E+03  0.10566000000E+00 0.  1.
        994    1    1    2    0    0 -0.23253624267E+02  0.73182147421E+02  0.26835650156E+02  0.18954141991E+03  0.17120000000E+03 0.  0.
        998    1    1    2    0    0 -0.13165481584E+02  0.11383229379E+02  0.96572004639E+03  0.96592862874E+03  0.10000000000E+02 0.  1.
</event>
<event>
 5    1  0.1360042E-008  0.3840269E+03  0.7957747E-01  0.3433810E+00
         13   -1    0    0    0    0  0.00000000000E+00  0.00000000000E+00  0.14999999963E+04  0.15000000000E+04  0.10566000000E+00 0. -1.
        994   -1    0    0    0    0 -0.00000000000E+00 -0.00000000000E+00  0.11368683772E-12  0.17120000000E+03  0.17120000000E+03 0.  0.
         13    1    1    2    0    0  0.56537747678E+01 -0.10742967955E+02  0.33933627258E+02  0.36039960495E+02  0.10566000000E+00 0. -1.
        994    1    1    2    0    0 -0.81743313621E+01  0.80055936447E+01  0.25460145459E+01  0.17160079083E+03  0.17120000000E+03 0.  0.
        998    1    1    2    0    0  0.25205565943E+01  0.27373743098E+01  0.14635203545E+04  0.14635592487E+04  0.10000000000E+02 0. -1.
</event>
<event>
 5    1  0.1360042E-008  0.3783677E+03  0.7957747E-01  0.3458297E+00
         13   -1    0    0    0    0  0.00000000000E+00  0.00000000000E+00  0.14999999963E+04  0.15000000000E+04  0.10566000000E+00 0.  1.
        994   -1    0    0    0    0 -0.00000000000E+00 -0.00000000000E+00  0.11368683772E-12  0.17120000000E+03  0.17120000000E+03 0.  0.
         13    1    1    2    0    0 -0.10978607658E+03  0.74949702652E+02  0.78432802583E+03  0.79551298155E+03  0.10566000000E+00 0.  1.
        994    1    1    2    0    0  0.11261337671E+03 -0.71554248517E+02  0.67332129710E+02  0.22725500828E+03  0.17120000000E+03 0.  0.
        998    1    1    2    0    0 -0.28273001350E+01 -0.33954541347E+01  0.64833984074E+03  0.64843201018E+03  0.10000000000E+02 0. -1.
</event>
<event>
 5    1  0.1360042E-008  0.3833654E+03  0.7957747E-01  0.3436634E+00
         13   -1    0    0    0    0  0.00000000000E+00  0.00000000000E+00  0.14999999963E+04  0.15000000000E+04  0.10566000000E+00 0.  1.
        994   -1    0    0    0    0 -0.00000000000E+00 -0.00000000000E+00  0.11368683772E-12  0.17120000000E+03  0.17120000000E+03 0.  0.
         13    1    1    2    0    0 -0.57902860281E+00  0.11393126946E+02  0.25632633042E+02  0.28056757768E+02  0.10566000000E+00 0.  1.
        994    1    1    2    0    0  0.26118063745E+01 -0.96833499046E+01  0.27764930459E+01  0.17151599841E+03  0.17120000000E+03 0.  0.
        998    1    1    2    0    0 -0.20327777717E+01 -0.17097770417E+01  0.14715908702E+04  0.14716272438E+04  0.10000000000E+02 0.  1.
</event>
<event>
 5    1  0.1360042E-008  0.3728753E+03  0.7957747E-01  0.3482780E+00
         13   -1    0    0    0    0  0.00000000000E+00  0.00000000000E+00  0.14999999963E+04  0.15000000000E+04  0.10566000000E+00 0. -1.
        994   -1    0    0    0    0 -0.00000000000E+00 -0.00000000000E+00  0.11368683772E-12  0.17120000000E+03  0.17120000000E+03 0.  0.
         13    1    1    2    0    0 -0.41000247447E+02 -0.43786253456E+02  0.19973717899E+03  0.20855025322E+03  0.10566000000E+00 0. -1.
        994    1    1    2    0    0  0.30984054347E+02  0.52792170321E+02  0.20713515100E+02  0.18299047674E+03  0.17120000000E+03 0.  0.
        998    1    1    2    0    0  0.10016193100E+02 -0.90059168646E+01  0.12795493022E+04  0.12796592700E+04  0.10000000000E+02 0. -1.
</event>
<event>
 5    1  0.1360042E-008  0.3790950E+03  0.7957747E-01  0.3455109E+00
         13   -1    0    0    0    0  0.00000000000E+00  0.00000000000E+00  0.14999999963E+04  0.15000000000E+04  0.10566000000E+00 0. -1.
        994   -1    0    0    0    0 -0.00000000000E+00 -0.00000000000E+00  0.11368683772E-12  0.17120000000E+03  0.17120000000E+03 0.  0.
         13    1    1    2    0    0  0.88986207164E+01  0.14621610047E+02  0.32079770263E+02  0.36360689697E+02  0.10566000000E+00 0. -1.
        994    1    1    2    0    0 -0.10485749880E+02  0.17843030780E+02  0.60281422707E+01  0.17255174064E+03  0.17120000000E+03 0.  0.
        998    1    1    2    0    0  0.15871291638E+01 -0.32464640827E+02  0.14618920837E+04  0.14622875697E+04  0.10000000000E+02 0. -1.
</event>
<event>
 5    1  0.1360042E-008  0.3829430E+03  0.7957747E-01  0.3438443E+00
         13   -1    0    0    0    0  0.00000000000E+00  0.00000000000E+00  0.14999999963E+04  0.15000000000E+04  0.10566000000E+00 0. -1.
        994   -1    0    0    0    0 -0.00000000000E+00 -0.00000000000E+00  0.11368683772E-12  0.17120000000E+03  0.17120000000E+03 0.  0.
         13    1    1    2    0    0  0.72007193365E+01 -0.83479626779E+01  0.22144621817E+02  0.24737305417E+02  0.10566000000E+00 0. -1.
        994    1    1    2    0    0 -0.36849993841E+01  0.27435908921E+01  0.27247151385E+01  0.17128330504E+03  0.17120000000E+03 0.  0.
        998    1    1    2    0    0 -0.35157199524E+01  0.56043717858E+01  0.14751306593E+04  0.14751793895E+04  0.10000000000E+02 0. -1.
</event>
<event>
 5    1  0.1360042E-008  0.3723774E+03  0.7957747E-01  0.3485036E+00
         13   -1    0    0    0    0  0.00000000000E+00  0.00000000000E+00  0.14999999963E+04  0.15000000000E+04  0.10566000000E+00 0. -1.
        994   -1    0    0    0    0 -0.00000000000E+00 -0.00000000000E+00  0.11368683772E-12  0.17120000000E+03  0.17120000000E+03 0.  0.
         13    1    1    2    0    0 -0.47301738484E+01 -0.13920009085E+02  0.99413860774E+01  0.17747775036E+02  0.10566000000E+00 0. -1.
        994    1    1    2    0    0  0.73916243368E+01  0.47881640975E+01  0.82977381069E+01  0.17162708144E+03  0.17120000000E+03 0.  0.
        998    1    1    2    0    0 -0.26614504884E+01  0.91318449871E+01  0.14817608721E+04  0.14818251435E+04  0.10000000000E+02 0. -1.
</event>
<event>
 5    1  0.1360042E-008  0.3834973E+03  0.7957747E-01  0.3436070E+00
         13   -1    0    0    0    0  0.00000000000E+00  0.00000000000E+00  0.14999999963E+04  0.15000000000E+04  0.10566000000E+00 0.  1.
        994   -1    0    0    0    0 -0.00000000000E+00 -0.00000000000E+00  0.11368683772E-12  0.17120000000E+03  0.17120000000E+03 0.  0.
         13    1    1    2    0    0 -0.82132187098E+01 -0.12819407510E+02  0.50157132058E+02  0.52417012799E+02  0.10566000000E+00 0.  1.
        994    1    1    2    0    0  0.19023151201E+02 -0.10347206144E+02  0.39293085897E+01  0.17260887701E+03  0.17120000000E+03 0.  0.
        998    1    1    2    0    0 -0.10809932491E+02  0.23166613655E+02  0.14459135556E+04  0.14461741102E+04  0.10000000000E+02 0.  1.
</event>
<event>
 5    1  0.1360042E-008  0.3835832E+03  0.7957747E-01  0.3435703E+00
         13   -1    0    0    0    0  0.00000000000E+00  0.00000000000E+00  0.14999999963E+04  0.15000000000E+04  0.10566000000E+00 0. -1.
        994   -1    0    0    0    0 -0.00000000000E+00 -0.00000000000E+00  0.11368683772E-12  0.17120000000E+03  0.17120000000E+03 0.  0.
         13    1    1    2    0    0 -0.97708534148E+01 -0.10484621405E+02  0.43549108922E+02  0.45846841924E+02  0.10566000000E+00 0. -1.
        994    1    1    2    0    0  0.64163257006E+01  0.56548936593E+01  0.25768769221E+01  0.17143286544E+03  0.17120000000E+03 0.  0.
        998    1    1    2    0    0  0.33545277143E+01  0.48297277457E+01  0.14538740104E+04  0.14539202926E+04  0.10000000000E+02 0. -1.
</event>
<event>
 5    1  0.1360042E-008  0.3795536E+03  0.7957747E-01  0.3453105E+00
         13   -1    0    0    0    0  0.00000000000E+00  0.00000000000E+00  0.14999999963E+04  0.15000000000E+04  0.10566000000E+00 0.  1.
        994   -1    0    0    0    0 -0.00000000000E+00 -0.00000000000E+00  0.11368683772E-12  0.17120000000E+03  0.17120000000E+03 0.  0.
         13    1    1    2    0    0 -0.69210773241E+01  0.40936595234E+02  0.16357462089E+03  0.16876129267E+03  0.10566000000E+00 0.  1.
        994    1    1    2    0    0 -0.22848267924E+01 -0.54346529486E+02  0.14328632196E+02  0.18020409374E+03  0.17120000000E+03 0.  0.
        998    1    1    2    0    0  0.92059041165E+01  0.13409934252E+02  0.13220967432E+04  0.13222346136E+04  0.10000000000E+02 0.  1.
</event>
<event>
 5    1  0.1360042E-008  0.3836871E+03  0.7957747E-01  0.3435260E+00
         13   -1    0    0    0    0  0.00000000000E+00  0.00000000000E+00  0.14999999963E+04  0.15000000000E+04  0.10566000000E+00 0. -1.
        994   -1    0    0    0    0 -0.00000000000E+00 -0.00000000000E+00  0.11368683772E-12  0.17120000000E+03  0.17120000000E+03 0.  0.
         13    1    1    2    0    0 -0.10889964162E+02 -0.17921041114E+01  0.25534200444E+02  0.27817431818E+02  0.10566000000E+00 0. -1.
        994    1    1    2    0    0  0.11565647251E+02  0.41296100121E+01  0.27816597653E+01  0.17166244641E+03  0.17120000000E+03 0.  0.
        998    1    1    2    0    0 -0.67568308953E+00 -0.23375059007E+01  0.14716841361E+04  0.14717201218E+04  0.10000000000E+02 0. -1.
</event>
<event>
 5    1  0.1360042E-008  0.3864578E+03  0.7957747E-01  0.3423513E+00
         13   -1    0    0    0    0  0.00000000000E+00  0.00000000000E+00  0.14999999963E+04  0.15000000000E+04  0.10566000000E+00 0.  1.
        994   -1    0    0    0    0 -0.00000000000E+00 -0.00000000000E+00  0.11368683772E-12  0.17120000000E+03  0.17120000000E+03 0.  0.
         13    1    1    2    0    0 -0.16218775714E+02  0.64486411232E+02  0.14020771337E+03  0.15517654453E+03  0.10566000000E+00 0.  1.
        994    1    1    2    0    0 -0.11780894378E+03  0.13540604039E+02  0.74215582002E+02  0.22108751164E+03  0.17120000000E+03 0.  0.
        998    1    1    2    0    0  0.13402771949E+03 -0.78027015271E+02  0.12855767009E+04  0.12949359438E+04  0.10000000000E+02 0.  1.
</event>
<event>
 5    1  0.1360042E-008  0.3795081E+03  0.7957747E-01  0.3453303E+00
         13   -1    0    0    0    0  0.00000000000E+00  0.00000000000E+00  0.14999999963E+04  0.15000000000E+04  0.10566000000E+00 0. -1.
        994   -1    0    0    0    0 -0.00000000000E+00 -0.00000000000E+00  0.11368683772E-12  0.17120000000E+03  0.17120000000E+03 0.  0.
         13    1    1    2    0    0  0.17717040451E+02  0.18107758397E+02  0.68681693796E+02  0.73204990698E+02  0.10566000000E+00 0. -1.
        994    1    1    2    0    0 -0.22257706068E+02 -0.14675529290E+02  0.67652203539E+01  0.17339545797E+03  0.17120000000E+03 0.  0.
        998    1    1    2    0    0  0.45406656174E+01 -0.34322291068E+01  0.14245530821E+04  0.14245995513E+04  0.10000000000E+02 0. -1.
</event>
<event>
 5    1  0.1360042E-008  0.3822621E+03  0.7957747E-01  0.3441368E+00
         13   -1    0    0    0    0  0.00000000000E+00  0.00000000000E+00  0.14999999963E+04  0.15000000000E+04  0.10566000000E+00 0. -1.
        994   -1    0    0    0    0 -0.00000000000E+00 -0.00000000000E+00  0.11368683772E-12  0.17120000000E+03  0.17120000000E+03 0.  0.
         13    1    1    2    0    0  0.15005961618E+02  0.71019770982E+01  0.48719090089E+02  0.51470164813E+02  0.10566000000E+00 0. -1.
        994    1    1    2    0    0  0.54906624093E+01  0.63956971430E+01  0.32313924884E+01  0.17143784358E+03  0.17120000000E+03 0.  0.
        998    1    1    2    0    0 -0.20496624028E+02 -0.13497674241E+02  0.14480495137E+04  0.14482919916E+04  0.10000000000E+02 0. -1.
</event>
<event>
 5    1  0.1360042E-008  0.3817887E+03  0.7957747E-01  0.3443407E+00
         13   -1    0    0    0    0  0.00000000000E+00  0.00000000000E+00  0.14999999963E+04  0.15000000000E+04  0.10566000000E+00 0.  1.
        994   -1    0    0    0    0 -0.00000000000E+00 -0.00000000000E+00  0.11368683772E-12  0.17120000000E+03  0.17120000000E+03 0.  0.
         13    1    1    2    0    0  0.12167874502E+02 -0.86344192514E+01  0.32869932689E+02  0.36097839336E+02  0.10566000000E+00 0.  1.
        994    1    1    2    0    0 -0.15028964675E+02  0.18647286594E+01  0.39954862151E+01  0.17191495253E+03  0.17120000000E+03 0.  0.
        998    1    1    2    0    0  0.28610901728E+01  0.67696905920E+01  0.14631345774E+04  0.14631872081E+04  0.10000000000E+02 0.  1.
</event>
<event>
 5    1  0.1360042E-008  0.3690025E+03  0.7957747E-01  0.3500488E+00
         13   -1    0    0    0    0  0.00000000000E+00  0.00000000000E+00  0.14999999963E+04  0.15000000000E+04  0.10566000000E+00 0. -1.
        994   -1    0    0    0    0 -0.00000000000E+00 -0.00000000000E+00  0.11368683772E-12  0.17120000000E+03  0.17120000000E+03 0.  0.
         13    1    1    2    0    0 -0.22364109260E+02  0.15157408986E+02  0.35594575111E+02  0.44686523377E+02  0.10566000000E+00 0. -1.
        994    1    1    2    0    0 -0.18142541845E+01  0.10344136186E+02  0.10174149475E+02  0.17182329874E+03  0.17120000000E+03 0.  0.
        998    1    1    2    0    0  0.24178363444E+02 -0.25501545172E+02  0.14542312717E+04  0.14546901779E+04  0.10000000000E+02 0. -1.
</event>
<event>
 5    1  0.1360042E-008  0.3829353E+03  0.7957747E-01  0.3438476E+00
         13   -1    0    0    0    0  0.00000000000E+00  0.00000000000E+00  0.14999999963E+04  0.15000000000E+04  0.10566000000E+00 0.  1.
        994   -1    0    0    0    0 -0.00000000000E+00 -0.00000000000E+00  0.11368683772E-12  0.17120000000E+03  0.17120000000E+03 0.  0.
         13    1    1    2    0    0  0.85432631317E+01  0.13301003644E+02  0.44958724933E+02  0.47657131203E+02  0.10566000000E+00 0.  1.
        994    1    1    2    0    0 -0.60247060331E+01 -0.16034073725E+02  0.36306372146E+01  0.17209302754E+03  0.17120000000E+03 0.  0.
        998    1    1    2    0    0 -0.25185570986E+01  0.27330700812E+01  0.14514106341E+04  0.14514498413E+04  0.10000000000E+02 0.  1.
</event>
<event>
 5    1  0.1360042E-008  0.3861181E+03  0.7957747E-01  0.3424944E+00
         13   -1    0    0    0    0  0.00000000000E+00  0.00000000000E+00  0.14999999963E+04  0.15000000000E+04  0.10566000000E+00 0. -1.
        994   -1    0    0    0    0 -0.00000000000E+00 -0.00000000000E+00  0.11368683772E-12  0.17120000000E+03  0.17120000000E+03 0.  0.
         13    1    1    2    0    0  0.82119115651E+01  0.79862475206E+01  0.59337634769E+02  0.60433283090E+02  0.10566000000E+00 0. -1.
        994    1    1    2    0    0 -0.46941798738E+01 -0.14264831171E+02  0.18153651202E+01  0.17186697264E+03  0.17120000000E+03 0.  0.
        998    1    1    2    0    0 -0.35177316913E+01  0.62785836503E+01  0.14388469964E+04  0.14388997443E+04  0.10000000000E+02 0. -1.
</event>
<event>
 5    1  0.1360042E-008  0.3854575E+03  0.7957747E-01  0.3427734E+00
         13   -1    0    0    0    0  0.00000000000E+00  0.00000000000E+00  0.14999999963E+04  0.15000000000E+04  0.10566000000E+00 0. -1.
        994   -1    0    0    0    0 -0.00000000000E+00 -0.00000000000E+00  0.11368683772E-12  0.17120000000E+03  0.17120000000E+03 0.  0.
         13    1    1    2    0    0 -0.23936054777E+01  0.13799292409E+02  0.67550105626E+02  0.68986794043E+02  0.10566000000E+00 0. -1.
        994    1    1    2    0    0  0.11863551774E+01 -0.14894782860E+02  0.21366661786E+01  0.17186409554E+03  0.17120000000E+03 0.  0.
        998    1    1    2    0    0  0.12072503003E+01  0.10954904513E+01  0.14303132245E+04  0.14303491104E+04  0.10000000000E+02 0. -1.
</event>
<event>
 5    1  0.1360042E-008  0.3805903E+03  0.7957747E-01  0.3448592E+00
         13   -1    0    0    0    0  0.00000000000E+00  0.00000000000E+00  0.14999999963E+04  0.15000000000E+04  0.10566000000E+00 0. -1.
        994   -1    0    0    0    0 -0.00000000000E+00 -0.00000000000E+00  0.11368683772E-12  0.17120000000E+03  0.17120000000E+03 0.  0.
         13    1    1    2    0    0  0.13742354183E+02 -0.15337586426E+02  0.54241498945E+02  0.58019352182E+02  0.10566000000E+00 0. -1.
        994    1    1    2    0    0 -0.44464701450E+01  0.11799941195E+02  0.43661386008E+01  0.17171928510E+03  0.17120000000E+03 0.  0.
        998    1    1    2    0    0 -0.92958840376E+01  0.35376452303E+01  0.14413923587E+04  0.14414613627E+04  0.10000000000E+02 0. -1.
</event>
<event>
 5    1  0.1360042E-008  0.3854129E+03  0.7957747E-01  0.3427923E+00
         13   -1    0    0    0    0  0.00000000000E+00  0.00000000000E+00  0.14999999963E+04  0.15000000000E+04  0.10566000000E+00 0. -1.
        994   -1    0    0    0    0 -0.00000000000E+00 -0.00000000000E+00  0.11368683772E-12  0.17120000000E+03  0.17120000000E+03 0.  0.
         13    1    1    2    0    0 -0.71648673380E+01  0.15687446555E+02  0.91635048894E+02  0.93243898745E+02  0.10566000000E+00 0. -1.
        994    1    1    2    0    0  0.42950547512E+02 -0.13426369194E+02  0.81044112810E+01  0.17720084199E+03  0.17120000000E+03 0.  0.
        998    1    1    2    0    0 -0.35785680174E+02 -0.22610773612E+01  0.14002605361E+04  0.14007552593E+04  0.10000000000E+02 0. -1.
</event>
<event>
 5    1  0.1360042E-008  0.3761153E+03  0.7957747E-01  0.3468250E+00
         13   -1    0    0    0    0  0.00000000000E+00  0.00000000000E+00  0.14999999963E+04  0.15000000000E+04  0.10566000000E+00 0. -1.
        994   -1    0    0    0    0 -0.00000000000E+00 -0.00000000000E+00  0.11368683772E-12  0.17120000000E+03  0.17120000000E+03 0.  0.
         13    1    1    2    0    0 -0.27989750640E+02  0.30059515978E+02  0.12482527350E+03  0.13140913481E+03  0.10566000000E+00 0. -1.
        994    1    1    2    0    0  0.31100597237E+02 -0.28832084943E+02  0.12222148186E+02  0.17679750331E+03  0.17120000000E+03 0.  0.
        998    1    1    2    0    0 -0.31108465970E+01 -0.12274310353E+01  0.13629525746E+04  0.13629933619E+04  0.10000000000E+02 0. -1.
</event>
<event>
 5    1  0.1360042E-008  0.3777782E+03  0.7957747E-01  0.3460890E+00
         13   -1    0    0    0    0  0.00000000000E+00  0.00000000000E+00  0.14999999963E+04  0.15000000000E+04  0.10566000000E+00 0.  1.
        994   -1    0    0    0    0 -0.00000000000E+00 -0.00000000000E+00  0.11368683772E-12  0.17120000000E+03  0.17120000000E+03 0.  0.
         13    1    1    2    0    0  0.46485756714E+01  0.12153009583E+02  0.14397781668E+02  0.19406498362E+02  0.10566000000E+00 0.  1.
        994    1    1    2    0    0 -0.89422197352E+01  0.13196505296E+02  0.61151401277E+01  0.17204925453E+03  0.17120000000E+03 0.  0.
        998    1    1    2    0    0  0.42936440638E+01 -0.25349514879E+02  0.14794870745E+04  0.14797442471E+04  0.10000000000E+02 0.  1.
</event>
<event>
 5    1  0.1360042E-008  0.3698287E+03  0.7957747E-01  0.3496678E+00
         13   -1    0    0    0    0  0.00000000000E+00  0.00000000000E+00  0.14999999963E+04  0.15000000000E+04  0.10566000000E+00 0. -1.
        994   -1    0    0    0    0 -0.00000000000E+00 -0.00000000000E+00  0.11368683772E-12  0.17120000000E+03  0.17120000000E+03 0.  0.
         13    1    1    2    0    0 -0.12801243133E+01  0.41957429742E+02  0.84116088887E+02  0.94008468780E+02  0.10566000000E+00 0. -1.
        994    1    1    2    0    0  0.20896042694E+02 -0.47945880377E+02  0.18882734775E+02  0.18000402695E+03  0.17120000000E+03 0.  0.
        998    1    1    2    0    0 -0.19615918381E+02  0.59884506354E+01  0.13970011726E+04  0.13971875043E+04  0.10000000000E+02 0. -1.
</event>
<event>
 5    1  0.1360042E-008  0.3789423E+03  0.7957747E-01  0.3455777E+00
         13   -1    0    0    0    0  0.00000000000E+00  0.00000000000E+00  0.14999999963E+04  0.15000000000E+04  0.10566000000E+00 0.  1.
        994   -1    0    0    0    0 -0.00000000000E+00 -0.00000000000E+00  0.11368683772E-12  0.17120000000E+03  0.17120000000E+03 0.  0.
         13    1    1    2    0    0 -0.14173214482E+03  0.50115964140E+02  0.90028817507E+03  0.91275320874E+03  0.10566000000E+00 0.  1.
        994    1    1    2    0    0  0.14329499226E+03 -0.40882458870E+02  0.83174288519E+02  0.24172759983E+03  0.17120000000E+03 0.  0.
        998    1    1    2    0    0 -0.15628474392E+01 -0.92335052699E+01  0.51653753269E+03  0.51671919143E+03  0.10000000000E+02 0.  1.
</event>
<event>
 5    1  0.1360042E-008  0.3824500E+03  0.7957747E-01  0.3440560E+00
         13   -1    0    0    0    0  0.00000000000E+00  0.00000000000E+00  0.14999999963E+04  0.15000000000E+04  0.10566000000E+00 0. -1.
        994   -1    0    0    0    0 -0.00000000000E+00 -0.00000000000E+00  0.11368683772E-12  0.17120000000E+03  0.17120000000E+03 0.  0.
         13    1    1    2    0    0 -0.21191694434E+02  0.16704581329E+02  0.12541388111E+03  0.12828399623E+03  0.10566000000E+00 0. -1.
        994    1    1    2    0    0  0.90861687973E+01 -0.13227137765E+02  0.37559042315E+01  0.17199146041E+03  0.17120000000E+03 0.  0.
        998    1    1    2    0    0  0.12105525637E+02 -0.34774435638E+01  0.13708302109E+04  0.13709245434E+04  0.10000000000E+02 0. -1.
</event>
<event>
 5    1  0.1360042E-008  0.3840693E+03  0.7957747E-01  0.3433629E+00
         13   -1    0    0    0    0  0.00000000000E+00  0.00000000000E+00  0.14999999963E+04  0.15000000000E+04  0.10566000000E+00 0. -1.
        994   -1    0    0    0    0 -0.00000000000E+00 -0.00000000000E+00  0.11368683772E-12  0.17120000000E+03  0.17120000000E+03 0.  0.
         13    1    1    2    0    0  0.10728269230E+02  0.65209083967E+01  0.36819879906E+02  0.38901577440E+02  0.10566000000E+00 0. -1.
        994    1    1    2    0    0 -0.68446023096E+01 -0.89690198543E+01  0.25129011360E+01  0.17158976243E+03  0.17120000000E+03 0.  0.
        998    1    1    2    0    0 -0.38836669200E+01  0.24481114576E+01  0.14606672152E+04  0.14607086601E+04  0.10000000000E+02 0. -1.
</event>
<event>
 5    1  0.1360042E-008  0.3814805E+03  0.7957747E-01  0.3444737E+00
         13   -1    0    0    0    0  0.00000000000E+00  0.00000000000E+00  0.14999999963E+04  0.15000000000E+04  0.10566000000E+00 0. -1.
        994   -1    0    0    0    0 -0.00000000000E+00 -0.00000000000E+00  0.11368683772E-12  0.17120000000E+03  0.17120000000E+03 0.  0.
         13    1    1    2    0    0  0.21582882213E+02 -0.86033370991E+00  0.74492439948E+02  0.77560916396E+02  0.10566000000E+00 0. -1.
        994    1    1    2    0    0  0.48499827396E+01 -0.16043316875E+02  0.43227087931E+01  0.17207276414E+03  0.17120000000E+03 0.  0.
        998    1    1    2    0    0 -0.26432864953E+02  0.16903650584E+02  0.14211848475E+04  0.14215663195E+04  0.10000000000E+02 0. -1.
</event>
<event>
 5    1  0.1360042E-008  0.3789266E+03  0.7957747E-01  0.3455846E+00
         13   -1    0    0    0    0  0.00000000000E+00  0.00000000000E+00  0.14999999963E+04  0.15000000000E+04  0.10566000000E+00 0.  1.
        994   -1    0    0    0    0 -0.00000000000E+00 -0.00000000000E+00  0.11368683772E-12  0.17120000000E+03  0.17120000000E+03 0.  0.
         13    1    1    2    0    0  0.28046409874E+02 -0.20875452347E+02  0.12587324651E+03  0.13063870395E+03  0.10566000000E+00 0.  1.
        994    1    1    2    0    0 -0.29197425899E+02  0.37042809007E+01  0.75874280026E+01  0.17387702677E+03  0.17120000000E+03 0.  0.
        998    1    1    2    0    0  0.11510160244E+01  0.17171171446E+02  0.13665393218E+04  0.13666842693E+04  0.10000000000E+02 0.  1.
</event>
<event>
 5    1  0.1360042E-008  0.3852997E+03  0.7957747E-01  0.3428402E+00
         13   -1    0    0    0    0  0.00000000000E+00  0.00000000000E+00  0.14999999963E+04  0.15000000000E+04  0.10566000000E+00 0. -1.
        994   -1    0    0    0    0 -0.00000000000E+00 -0.00000000000E+00  0.11368683772E-12  0.17120000000E+03  0.17120000000E+03 0.  0.
         13    1    1    2    0    0 -0.71268370718E+01  0.17253941634E+02  0.10657539591E+03  0.10819804290E+03  0.10566000000E+00 0. -1.
        994    1    1    2    0    0  0.59732696185E+01 -0.23501284941E+02  0.34155975336E+01  0.17294246630E+03  0.17120000000E+03 0.  0.
        998    1    1    2    0    0  0.11535674533E+01  0.62473433069E+01  0.13900090028E+04  0.13900594908E+04  0.10000000000E+02 0. -1.
</event>
<event>
 5    1  0.1360042E-008  0.3825396E+03  0.7957747E-01  0.3440174E+00
         13   -1    0    0    0    0  0.00000000000E+00  0.00000000000E+00  0.14999999963E+04  0.15000000000E+04  0.10566000000E+00 0. -1.
        994   -1    0    0    0    0 -0.00000000000E+00 -0.00000000000E+00  0.11368683772E-12  0.17120000000E+03  0.17120000000E+03 0.  0.
         13    1    1    2    0    0  0.96326586996E+01  0.12512138603E+02  0.42185543329E+02  0.45044122325E+02  0.10566000000E+00 0. -1.
        994    1    1    2    0    0 -0.10679911473E+02 -0.88262296562E+01  0.34932462491E+01  0.17179524326E+03  0.17120000000E+03 0.  0.
        998    1    1    2    0    0  0.10472527734E+01 -0.36859089465E+01  0.14543212067E+04  0.14543606344E+04  0.10000000000E+02 0. -1.
</event>
<event>
 5    1  0.1360042E-008  0.3821058E+03  0.7957747E-01  0.3442040E+00
         13   -1    0    0    0    0  0.00000000000E+00  0.00000000000E+00  0.14999999963E+04  0.15000000000E+04  0.10566000000E+00 0.  1.
        994   -1    0    0    0    0 -0.00000000000E+00 -0.00000000000E+00  0.11368683772E-12  0.17120000000E+03  0.17120000000E+03 0.  0.
         13    1    1    2    0    0 -0.10635914692E+03 -0.12006153581E+03  0.79905460456E+03  0.81499405688E+03  0.10566000000E+00 0.  1.
        994    1    1    2    0    0  0.14093944357E+03  0.13526042461E+03  0.14225478626E+03  0.29615059249E+03  0.17120000000E+03 0.  0.
        998    1    1    2    0    0 -0.34580296653E+02 -0.15198888802E+02  0.55869060546E+03  0.56005535063E+03  0.10000000000E+02 0. -1.
</event>
<event>
 5    1  0.1360042E-008  0.3743557E+03  0.7957747E-01  0.3476109E+00
         13   -1    0    0    0    0  0.00000000000E+00  0.00000000000E+00  0.14999999963E+04  0.15000000000E+04  0.10566000000E+00 0. -1.
        994   -1    0    0    0    0 -0.00000000000E+00 -0.00000000000E+00  0.11368683772E-12  0.17120000000E+03  0.17120000000E+03 0.  0.
         13    1    1    2    0    0 -0.73350491549E+02 -0.83748890655E+02  0.61303098556E+03  0.62305792004E+03  0.10566000000E+00 0. -1.
        994    1    1    2    0    0  0.40981526106E+02  0.96550710171E+02  0.45465208304E+02  0.20585929729E+03  0.17120000000E+03 0.  0.
        998    1    1    2    0    0  0.32368965443E+02 -0.12801819516E+02  0.84150380241E+03  0.84228278267E+03  0.10000000000E+02 0.  1.
</event>
<event>
 5    1  0.1360042E-008  0.3834222E+03  0.7957747E-01  0.3436391E+00
         13   -1    0    0    0    0  0.00000000000E+00  0.00000000000E+00  0.14999999963E+04  0.15000000000E+04  0.10566000000E+00 0.  1.
        994   -1    0    0    0    0 -0.00000000000E+00 -0.00000000000E+00  0.11368683772E-12  0.17120000000E+03  0.17120000000E+03 0.  0.
         13    1    1    2    0    0  0.17197357545E+02  0.20638375848E+02  0.15040501623E+03  0.15278537802E+03  0.10566000000E+00 0.  1.
        994    1    1    2    0    0 -0.33953725465E+01 -0.16499503163E+02  0.33540492119E+01  0.17205944265E+03  0.17120000000E+03 0.  0.
        998    1    1    2    0    0 -0.13801984999E+02 -0.41388726850E+01  0.13462409308E+04  0.13463551793E+04  0.10000000000E+02 0.  1.
</event>
<event>
 5    1  0.1360042E-008  0.3832378E+03  0.7957747E-01  0.3437180E+00
         13   -1    0    0    0    0  0.00000000000E+00  0.00000000000E+00  0.14999999963E+04  0.15000000000E+04  0.10566000000E+00 0.  1.
        994   -1    0    0    0    0 -0.00000000000E+00 -0.00000000000E+00  0.11368683772E-12  0.17120000000E+03  0.17120000000E+03 0.  0.
         13    1    1    2    0    0  0.39362355194E+01 -0.11087364818E+02  0.26922241087E+02  0.29380977483E+02  0.10566000000E+00 0.  1.
        994    1    1    2    0    0 -0.83759685404E+01  0.37507918004E+01  0.27861923483E+01  0.17146844653E+03  0.17120000000E+03 0.  0.
        998    1    1    2    0    0  0.44397330210E+01  0.73365730175E+01  0.14702915628E+04  0.14703505760E+04  0.10000000000E+02 0.  1.
</event>
<event>
 5    1  0.1360042E-008  0.3787049E+03  0.7957747E-01  0.3456817E+00
         13   -1    0    0    0    0  0.00000000000E+00  0.00000000000E+00  0.14999999963E+04  0.15000000000E+04  0.10566000000E+00 0.  1.
        994   -1    0    0    0    0 -0.00000000000E+00 -0.00000000000E+00  0.11368683772E-12  0.17120000000E+03  0.17120000000E+03 0.  0.
         13    1    1    2    0    0  0.12986051311E+03  0.10121308253E+03  0.94506701560E+03  0.95930157723E+03  0.10566000000E+00 0.  1.
        994    1    1    2    0    0 -0.12704607753E+03 -0.10073204203E+03  0.98810175558E+02  0.25565707677E+03  0.17120000000E+03 0.  0.
        998    1    1    2    0    0 -0.28144355788E+01 -0.48104049861E+00  0.45612280512E+03  0.45624134600E+03  0.10000000000E+02 0.  0.
</event>
<event>
 5    1  0.1360042E-008  0.3738775E+03  0.7957747E-01  0.3478258E+00
         13   -1    0    0    0    0  0.00000000000E+00  0.00000000000E+00  0.14999999963E+04  0.15000000000E+04  0.10566000000E+00 0. -1.
        994   -1    0    0    0    0 -0.00000000000E+00 -0.00000000000E+00  0.11368683772E-12  0.17120000000E+03  0.17120000000E+03 0.  0.
         13    1    1    2    0    0  0.12530657574E+02 -0.30459779807E+01  0.82950353907E+01  0.15333432012E+02  0.10566000000E+00 0. -1.
        994    1    1    2    0    0 -0.88603196716E+01 -0.30038549039E+02  0.10610256463E+02  0.17436409388E+03  0.17120000000E+03 0.  0.
        998    1    1    2    0    0 -0.36703379022E+01  0.33084527020E+02  0.14810947044E+04  0.14815024741E+04  0.10000000000E+02 0. -1.
</event>
<event>
 5    1  0.1360042E-008  0.3859566E+03  0.7957747E-01  0.3425625E+00
         13   -1    0    0    0    0  0.00000000000E+00  0.00000000000E+00  0.14999999963E+04  0.15000000000E+04  0.10566000000E+00 0.  1.
        994   -1    0    0    0    0 -0.00000000000E+00 -0.00000000000E+00  0.11368683772E-12  0.17120000000E+03  0.17120000000E+03 0.  0.
         13    1    1    2    0    0 -0.41173912490E+01  0.12961828617E+02  0.75575864406E+02  0.76789871445E+02  0.10566000000E+00 0.  1.
        994    1    1    2    0    0  0.83364282624E+01 -0.15678083899E+02  0.21903311896E+01  0.17213232091E+03  0.17120000000E+03 0.  0.
        998    1    1    2    0    0 -0.42190370133E+01  0.27162552821E+01  0.14222338007E+04  0.14222778076E+04  0.10000000000E+02 0.  1.
</event>
<event>
 5    1  0.1360042E-008  0.3807428E+03  0.7957747E-01  0.3447931E+00
         13   -1    0    0    0    0  0.00000000000E+00  0.00000000000E+00  0.14999999963E+04  0.15000000000E+04  0.10566000000E+00 0. -1.
        994   -1    0    0    0    0 -0.00000000000E+00 -0.00000000000E+00  0.11368683772E-12  0.17120000000E+03  0.17120000000E+03 0.  0.
         13    1    1    2    0    0  0.22794453605E+02 -0.29336411632E+02  0.18905738370E+03  0.19267308493E+03  0.10566000000E+00 0. -1.
        994    1    1    2    0    0  0.13254351870E+01  0.22671811431E+02  0.54805015959E+01  0.17278670004E+03  0.17120000000E+03 0.  0.
        998    1    1    2    0    0 -0.24119888792E+02  0.66646002009E+01  0.13054621110E+04  0.13057402150E+04  0.10000000000E+02 0. -1.
</event>
<event>
 5    1  0.1360042E-008  0.3772924E+03  0.7957747E-01  0.3463034E+00
         13   -1    0    0    0    0  0.00000000000E+00  0.00000000000E+00  0.14999999963E+04  0.15000000000E+04  0.10566000000E+00 0. -1.
        994   -1    0    0    0    0 -0.00000000000E+00 -0.00000000000E+00  0.11368683772E-12  0.17120000000E+03  0.17120000000E+03 0.  0.
         13    1    1    2    0    0  0.42201001041E+02 -0.20462404191E+02  0.15543505822E+03  0.16235671518E+03  0.10566000000E+00 0. -1.
        994    1    1    2    0    0 -0.64506860362E+02  0.29679621631E+02  0.22707036857E+02  0.18672724626E+03  0.17120000000E+03 0.  0.
        998    1    1    2    0    0  0.22305859321E+02 -0.92172174408E+01  0.13218579012E+04  0.13221160386E+04  0.10000000000E+02 0. -1.
</event>
<event>
 5    1  0.1360042E-008  0.3810585E+03  0.7957747E-01  0.3446562E+00
         13   -1    0    0    0    0  0.00000000000E+00  0.00000000000E+00  0.14999999963E+04  0.15000000000E+04  0.10566000000E+00 0.  1.
        994   -1    0    0    0    0 -0.00000000000E+00 -0.00000000000E+00  0.11368683772E-12  0.17120000000E+03  0.17120000000E+03 0.  0.
         13    1    1    2    0    0 -0.17383954030E+02 -0.56741139522E+01  0.44400675024E+02  0.48019043446E+02  0.10566000000E+00 0.  1.
        994    1    1    2    0    0  0.15173847300E+02  0.64427620530E+01  0.45055573241E+01  0.17205084967E+03  0.17120000000E+03 0.  0.
        998    1    1    2    0    0  0.22101067302E+01 -0.76864810081E+00  0.14510937639E+04  0.14511301069E+04  0.10000000000E+02 0.  1.
</event>
<event>
 5    1  0.1360042E-008  0.3853067E+03  0.7957747E-01  0.3428372E+00
         13   -1    0    0    0    0  0.00000000000E+00  0.00000000000E+00  0.14999999963E+04  0.15000000000E+04  0.10566000000E+00 0.  1.
        994   -1    0    0    0    0 -0.00000000000E+00 -0.00000000000E+00  0.11368683772E-12  0.17120000000E+03  0.17120000000E+03 0.  0.
         13    1    1    2    0    0 -0.13189552289E+02  0.55449147724E+01  0.82212615235E+02  0.83448401047E+02  0.10566000000E+00 0.  1.
        994    1    1    2    0    0 -0.64086683966E+01  0.16193200628E+02  0.24749979242E+01  0.17210129689E+03  0.17120000000E+03 0.  0.
        998    1    1    2    0    0  0.19598220686E+02 -0.21738115400E+02  0.14153123831E+04  0.14156503021E+04  0.10000000000E+02 0.  1.
</event>
<event>
 5    1  0.1360042E-008  0.3851436E+03  0.7957747E-01  0.3429063E+00
         13   -1    0    0    0    0  0.00000000000E+00  0.00000000000E+00  0.14999999963E+04  0.15000000000E+04  0.10566000000E+00 0. -1.
        994   -1    0    0    0    0 -0.00000000000E+00 -0.00000000000E+00  0.11368683772E-12  0.17120000000E+03  0.17120000000E+03 0.  0.
         13    1    1    2    0    0 -0.50633616484E+01 -0.14490528195E+02  0.91097862801E+02  0.92382058916E+02  0.10566000000E+00 0. -1.
        994    1    1    2    0    0 -0.15627244018E+02 -0.83640312585E+01  0.25922340012E+01  0.17213462014E+03  0.17120000000E+03 0.  0.
        998    1    1    2    0    0  0.20690605666E+02  0.22854559453E+02  0.14063098995E+04  0.14066833209E+04  0.10000000000E+02 0. -1.
</event>
<event>
 5    1  0.1360042E-008  0.3723962E+03  0.7957747E-01  0.3484950E+00
         13   -1    0    0    0    0  0.00000000000E+00  0.00000000000E+00  0.14999999963E+04  0.15000000000E+04  0.10566000000E+00 0. -1.
        994   -1    0    0    0    0 -0.00000000000E+00 -0.00000000000E+00  0.11368683772E-12  0.17120000000E+03  0.17120000000E+03 0.  0.
         13    1    1    2    0    0  0.26915656627E+02  0.13053413737E+02  0.53089531440E+02  0.60937293133E+02  0.10566000000E+00 0. -1.
        994    1    1    2    0    0 -0.17231980559E+02 -0.39476770799E+01  0.90944113367E+01  0.17235043843E+03  0.17120000000E+03 0.  0.
        998    1    1    2    0    0 -0.96836760679E+01 -0.91057366572E+01  0.14378160535E+04  0.14379122684E+04  0.10000000000E+02 0. -1.
</event>
<event>
 5    1  0.1360042E-008  0.3799646E+03  0.7957747E-01  0.3451313E+00
         13   -1    0    0    0    0  0.00000000000E+00  0.00000000000E+00  0.14999999963E+04  0.15000000000E+04  0.10566000000E+00 0. -1.
        994   -1    0    0    0    0 -0.00000000000E+00 -0.00000000000E+00  0.11368683772E-12  0.17120000000E+03  0.17120000000E+03 0.  0.
         13    1    1    2    0    0 -0.17788029219E+02 -0.41752254976E+01  0.38253878274E+02  0.42393594546E+02  0.10566000000E+00 0. -1.
        994    1    1    2    0    0  0.14855566343E+02  0.23214855132E+01  0.49072126606E+01  0.17192904898E+03  0.17120000000E+03 0.  0.
        998    1    1    2    0    0  0.29324628754E+01  0.18537399844E+01  0.14568389053E+04  0.14568773565E+04  0.10000000000E+02 0. -1.
</event>
<event>
 5    1  0.1360042E-008  0.3814459E+03  0.7957747E-01  0.3444887E+00
         13   -1    0    0    0    0  0.00000000000E+00  0.00000000000E+00  0.14999999963E+04  0.15000000000E+04  0.10566000000E+00 0.  1.
        994   -1    0    0    0    0 -0.00000000000E+00 -0.00000000000E+00  0.11368683772E-12  0.17120000000E+03  0.17120000000E+03 0.  0.
         13    1    1    2    0    0 -0.78978949876E+01 -0.23062036214E+02  0.83062914288E+02  0.86566120125E+02  0.10566000000E+00 0.  1.
        994    1    1    2    0    0  0.18561915533E+02  0.17283638656E+02  0.55481578742E+01  0.17315741662E+03  0.17120000000E+03 0.  0.
        998    1    1    2    0    0 -0.10664020545E+02  0.57783975580E+01  0.14113889241E+04  0.14114764633E+04  0.10000000000E+02 0.  1.
</event>
<event>
 5    1  0.1360042E-008  0.3757455E+03  0.7957747E-01  0.3469895E+00
         13   -1    0    0    0    0  0.00000000000E+00  0.00000000000E+00  0.14999999963E+04  0.15000000000E+04  0.10566000000E+00 0.  1.
        994   -1    0    0    0    0 -0.00000000000E+00 -0.00000000000E+00  0.11368683772E-12  0.17120000000E+03  0.17120000000E+03 0.  0.
         13    1    1    2    0    0 -0.58647903709E+02  0.72500547702E+02  0.25058680893E+03  0.26737551496E+03  0.10566000000E+00 0.  1.
        994    1    1    2    0    0  0.52023359823E+02 -0.80511930400E+02  0.47568250493E+02  0.20189298987E+03  0.17120000000E+03 0.  0.
        998    1    1    2    0    0  0.66245438864E+01  0.80113826982E+01  0.12018449369E+04  0.12019314952E+04  0.10000000000E+02 0.  1.
</event>
<event>
 5    1  0.2248237E-008  0.3863557E+03  0.7957747E-01  0.3423943E+00
         13   -1    0    0    0    0  0.00000000000E+00  0.00000000000E+00  0.14999999963E+04  0.15000000000E+04  0.10566000000E+00 0. -1.
        994   -1    0    0    0    0 -0.00000000000E+00 -0.00000000000E+00  0.11368683772E-12  0.17120000000E+03  0.17120000000E+03 0.  0.
         13    1    1    2    0    0 -0.55828489041E+01  0.88509159051E+01  0.58251301164E+02  0.59183884340E+02  0.10566000000E+00 0. -1.
        994    1    1    2    0    0  0.26217276983E+01 -0.64836190348E+01  0.11187135483E+01  0.17134643939E+03  0.17120000000E+03 0.  0.
        998    1    1    2    0    0  0.29611212058E+01 -0.23672968704E+01  0.14406299816E+04  0.14406696763E+04  0.10000000000E+02 0. -1.
</event>
<event>
 5    1  0.1360042E-008  0.3847506E+03  0.7957747E-01  0.3430731E+00
         13   -1    0    0    0    0  0.00000000000E+00  0.00000000000E+00  0.14999999963E+04  0.15000000000E+04  0.10566000000E+00 0.  1.
        994   -1    0    0    0    0 -0.00000000000E+00 -0.00000000000E+00  0.11368683772E-12  0.17120000000E+03  0.17120000000E+03 0.  0.
         13    1    1    2    0    0 -0.11159631253E+02  0.27395929304E+01  0.36818555544E+02  0.38570194911E+02  0.10566000000E+00 0.  1.
        994    1    1    2    0    0  0.96659948807E+01 -0.68783414403E+01  0.22173657927E+01  0.17162488091E+03  0.17120000000E+03 0.  0.
        998    1    1    2    0    0  0.14936363719E+01  0.41387485099E+01  0.14609640749E+04  0.14610049242E+04  0.10000000000E+02 0.  1.
</event>
<event>
 5    1  0.1360042E-008  0.3804538E+03  0.7957747E-01  0.3449185E+00
         13   -1    0    0    0    0  0.00000000000E+00  0.00000000000E+00  0.14999999963E+04  0.15000000000E+04  0.10566000000E+00 0. -1.
        994   -1    0    0    0    0 -0.00000000000E+00 -0.00000000000E+00  0.11368683772E-12  0.17120000000E+03  0.17120000000E+03 0.  0.
         13    1    1    2    0    0  0.11186319929E+01 -0.14111834808E+02  0.24023784691E+02  0.27884558704E+02  0.10566000000E+00 0. -1.
        994    1    1    2    0    0 -0.81729142569E+01  0.10060769043E+02  0.44652879564E+01  0.17174805500E+03  0.17120000000E+03 0.  0.
        998    1    1    2    0    0  0.70542822641E+01  0.40510657656E+01  0.14715109236E+04  0.14715673863E+04  0.10000000000E+02 0. -1.
</event>
<event>
 5    1  0.1360042E-008  0.3854353E+03  0.7957747E-01  0.3427828E+00
         13   -1    0    0    0    0  0.00000000000E+00  0.00000000000E+00  0.14999999963E+04  0.15000000000E+04  0.10566000000E+00 0. -1.
        994   -1    0    0    0    0 -0.00000000000E+00 -0.00000000000E+00  0.11368683772E-12  0.17120000000E+03  0.17120000000E+03 0.  0.
         13    1    1    2    0    0  0.10646438278E+02  0.10631217579E+02  0.83688135259E+02  0.85029904048E+02  0.10566000000E+00 0. -1.
        994    1    1    2    0    0  0.24367392199E+01 -0.91309200406E+01  0.17075471176E+01  0.17146914333E+03  0.17120000000E+03 0.  0.
        998    1    1    2    0    0 -0.13083177498E+02 -0.15002975380E+01  0.14146043139E+04  0.14147009526E+04  0.10000000000E+02 0. -1.
</event>
<event>
 5    1  0.1360042E-008  0.3848226E+03  0.7957747E-01  0.3430425E+00
         13   -1    0    0    0    0  0.00000000000E+00  0.00000000000E+00  0.14999999963E+04  0.15000000000E+04  0.10566000000E+00 0. -1.
        994   -1    0    0    0    0 -0.00000000000E+00 -0.00000000000E+00  0.11368683772E-12  0.17120000000E+03  0.17120000000E+03 0.  0.
         13    1    1    2    0    0  0.10934925788E+02  0.15771299546E+01  0.34683160034E+02  0.36400449103E+02  0.10566000000E+00 0. -1.
        994    1    1    2    0    0 -0.92198977206E+01 -0.14854257046E+02  0.27246755693E+01  0.17211193835E+03  0.17120000000E+03 0.  0.
        998    1    1    2    0    0 -0.17150280671E+01  0.13277127091E+02  0.14625921607E+04  0.14626876125E+04  0.10000000000E+02 0. -1.
</event>
<event>
 5    1  0.1360042E-008  0.3835876E+03  0.7957747E-01  0.3435685E+00
         13   -1    0    0    0    0  0.00000000000E+00  0.00000000000E+00  0.14999999963E+04  0.15000000000E+04  0.10566000000E+00 0. -1.
        994   -1    0    0    0    0 -0.00000000000E+00 -0.00000000000E+00  0.11368683772E-12  0.17120000000E+03  0.17120000000E+03 0.  0.
         13    1    1    2    0    0  0.23531076277E+02 -0.17964600863E+02  0.17066421981E+03  0.17321294849E+03  0.10566000000E+00 0. -1.
        994    1    1    2    0    0 -0.24671811274E+02  0.14238444917E+02  0.50184090986E+01  0.17362619622E+03  0.17120000000E+03 0.  0.
        998    1    1    2    0    0  0.11407349973E+01  0.37261559453E+01  0.13243173674E+04  0.13243608553E+04  0.10000000000E+02 0.  0.
</event>
<event>
 5    1  0.1360042E-008  0.3775887E+03  0.7957747E-01  0.3461726E+00
         13   -1    0    0    0    0  0.00000000000E+00  0.00000000000E+00  0.14999999963E+04  0.15000000000E+04  0.10566000000E+00 0.  1.
        994   -1    0    0    0    0 -0.00000000000E+00 -0.00000000000E+00  0.11368683772E-12  0.17120000000E+03  0.17120000000E+03 0.  0.
         13    1    1    2    0    0 -0.41180663679E+02  0.16609836395E+02  0.62700223268E+02  0.76831392595E+02  0.10566000000E+00 0.  1.
        994    1    1    2    0    0  0.13681787059E+02 -0.91212159567E+01  0.15980779461E+02  0.17272872717E+03  0.17120000000E+03 0.  0.
        998    1    1    2    0    0  0.27498876620E+02 -0.74886204386E+01  0.14213189935E+04  0.14216398802E+04  0.10000000000E+02 0.  1.
</event>
<event>
 5    1  0.1360042E-008  0.3826683E+03  0.7957747E-01  0.3439622E+00
         13   -1    0    0    0    0  0.00000000000E+00  0.00000000000E+00  0.14999999963E+04  0.15000000000E+04  0.10566000000E+00 0. -1.
        994   -1    0    0    0    0 -0.00000000000E+00 -0.00000000000E+00  0.11368683772E-12  0.17120000000E+03  0.17120000000E+03 0.  0.
         13    1    1    2    0    0 -0.24295877320E+02  0.26548742494E+02  0.20272699428E+03  0.20589650496E+03  0.10566000000E+00 0. -1.
        994    1    1    2    0    0  0.16766389687E+02 -0.33598072980E+02  0.74784417231E+01  0.17542892983E+03  0.17120000000E+03 0.  0.
        998    1    1    2    0    0  0.75294876326E+01  0.70493304861E+01  0.12897945603E+04  0.12898745652E+04  0.10000000000E+02 0. -1.
</event>
<event>
 5    1  0.1360042E-008  0.3798153E+03  0.7957747E-01  0.3451963E+00
         13   -1    0    0    0    0  0.00000000000E+00  0.00000000000E+00  0.14999999963E+04  0.15000000000E+04  0.10566000000E+00 0.  1.
        994   -1    0    0    0    0 -0.00000000000E+00 -0.00000000000E+00  0.11368683772E-12  0.17120000000E+03  0.17120000000E+03 0.  0.
         13    1    1    2    0    0  0.10540357462E+02 -0.10165478271E+01  0.11022468887E+02  0.15285237627E+02  0.10566000000E+00 0.  1.
        994    1    1    2    0    0 -0.16734477769E+02  0.41913182184E+02  0.11069582801E+02  0.17739428754E+03  0.17120000000E+03 0.  0.
        998    1    1    2    0    0  0.61941203072E+01 -0.40896634357E+02  0.14779079446E+04  0.14785204748E+04  0.10000000000E+02 0.  1.
</event>
<event>
 5    1  0.1360042E-008  0.3836534E+03  0.7957747E-01  0.3435404E+00
         13   -1    0    0    0    0  0.00000000000E+00  0.00000000000E+00  0.14999999963E+04  0.15000000000E+04  0.10566000000E+00 0.  1.
        994   -1    0    0    0    0 -0.00000000000E+00 -0.00000000000E+00  0.11368683772E-12  0.17120000000E+03  0.17120000000E+03 0.  0.
         13    1    1    2    0    0  0.77032980327E+01 -0.10579473252E+02  0.39158786926E+02  0.41287865196E+02  0.10566000000E+00 0.  1.
        994    1    1    2    0    0  0.28406389835E+01 -0.65412343737E+01  0.24682024365E+01  0.17136624230E+03  0.17120000000E+03 0.  0.
        998    1    1    2    0    0 -0.10543937016E+02  0.17120707626E+02  0.14583730069E+04  0.14585458925E+04  0.10000000000E+02 0.  1.
</event>
<event>
 5    1  0.1360042E-008  0.3819358E+03  0.7957747E-01  0.3442773E+00
         13   -1    0    0    0    0  0.00000000000E+00  0.00000000000E+00  0.14999999963E+04  0.15000000000E+04  0.10566000000E+00 0.  1.
        994   -1    0    0    0    0 -0.00000000000E+00 -0.00000000000E+00  0.11368683772E-12  0.17120000000E+03  0.17120000000E+03 0.  0.
         13    1    1    2    0    0  0.27870493562E+02 -0.19646236743E+02  0.17688311411E+03  0.18013990744E+03  0.10566000000E+00 0.  1.
        994    1    1    2    0    0 -0.45965863196E+02 -0.18235528584E+02  0.11324851503E+02  0.17855835837E+03  0.17120000000E+03 0.  0.
        998    1    1    2    0    0  0.18095369633E+02  0.37881765327E+02  0.13117920307E+04  0.13125017342E+04  0.10000000000E+02 0.  1.
</event>
<event>
 5    1  0.1360042E-008  0.3740666E+03  0.7957747E-01  0.3477408E+00
         13   -1    0    0    0    0  0.00000000000E+00  0.00000000000E+00  0.14999999963E+04  0.15000000000E+04  0.10566000000E+00 0.  1.
        994   -1    0    0    0    0 -0.00000000000E+00 -0.00000000000E+00  0.11368683772E-12  0.17120000000E+03  0.17120000000E+03 0.  0.
         13    1    1    2    0    0  0.46294945446E+02  0.28037580273E+02  0.10111258433E+03  0.11468693803E+03  0.10566000000E+00 0.  1.
        994    1    1    2    0    0 -0.46464485992E+02 -0.24572164242E+02  0.22969097059E+02  0.18055403383E+03  0.17120000000E+03 0.  0.
        998    1    1    2    0    0  0.16954054541E+00 -0.34654160314E+01  0.13759183149E+04  0.13759590281E+04  0.10000000000E+02 0.  1.
</event>
<event>
 5    1  0.1360042E-008  0.3817264E+03  0.7957747E-01  0.3443676E+00
         13   -1    0    0    0    0  0.00000000000E+00  0.00000000000E+00  0.14999999963E+04  0.15000000000E+04  0.10566000000E+00 0. -1.
        994   -1    0    0    0    0 -0.00000000000E+00 -0.00000000000E+00  0.11368683772E-12  0.17120000000E+03  0.17120000000E+03 0.  0.
         13    1    1    2    0    0  0.13936411271E+02 -0.42806487949E+01  0.29439987980E+02  0.32852268864E+02  0.10566000000E+00 0. -1.
        994    1    1    2    0    0 -0.29553464848E+02  0.16784714850E+01  0.61821801532E+01  0.17385017660E+03  0.17120000000E+03 0.  0.
        998    1    1    2    0    0  0.15617053577E+02  0.26021773099E+01  0.14643778281E+04  0.14644975545E+04  0.10000000000E+02 0. -1.
</event>
<event>
 5    1  0.1360042E-008  0.3856952E+03  0.7957747E-01  0.3426729E+00
         13   -1    0    0    0    0  0.00000000000E+00  0.00000000000E+00  0.14999999963E+04  0.15000000000E+04  0.10566000000E+00 0. -1.
        994   -1    0    0    0    0 -0.00000000000E+00 -0.00000000000E+00  0.11368683772E-12  0.17120000000E+03  0.17120000000E+03 0.  0.
         13    1    1    2    0    0  0.13256549642E+01  0.12686305052E+02  0.65221441086E+02  0.66457108260E+02  0.10566000000E+00 0. -1.
        994    1    1    2    0    0  0.54445814126E+00 -0.53810902630E+01  0.13813624183E+01  0.17129098263E+03  0.17120000000E+03 0.  0.
        998    1    1    2    0    0 -0.18701131055E+01 -0.73052147890E+01  0.14333971928E+04  0.14334519091E+04  0.10000000000E+02 0. -1.
</event>
<event>
 5    1  0.1360042E-008  0.3979920E+03  0.7957747E-01  0.3376374E+00
         13   -1    0    0    0    0  0.00000000000E+00  0.00000000000E+00  0.14999999963E+04  0.15000000000E+04  0.10566000000E+00 0. -1.
        994   -1    0    0    0    0 -0.00000000000E+00 -0.00000000000E+00  0.11368683772E-12  0.17120000000E+03  0.17120000000E+03 0.  0.
         13    1    1    2    0    0 -0.71608783232E+02 -0.11669976460E+03  0.31836257381E+03  0.34655647803E+03  0.10566000000E+00 0. -1.
        994    1    1    2    0    0  0.42998501323E+02  0.93170187835E+02  0.68765870302E+02  0.21111072909E+03  0.17120000000E+03 0.  0.
        998    1    1    2    0    0  0.28610281909E+02  0.23529576770E+02  0.11128715522E+04  0.11135327929E+04  0.10000000000E+02 0. -1.
</event>
<event>
 5    1  0.1360042E-008  0.3774594E+03  0.7957747E-01  0.3462296E+00
         13   -1    0    0    0    0  0.00000000000E+00  0.00000000000E+00  0.14999999963E+04  0.15000000000E+04  0.10566000000E+00 0. -1.
        994   -1    0    0    0    0 -0.00000000000E+00 -0.00000000000E+00  0.11368683772E-12  0.17120000000E+03  0.17120000000E+03 0.  0.
         13    1    1    2    0    0  0.13093865083E+02 -0.37019859130E+02  0.15605416797E+03  0.16091871792E+03  0.10566000000E+00 0. -1.
        994    1    1    2    0    0 -0.55024700874E+01  0.32476538800E+01  0.55587898283E+01  0.17140934799E+03  0.17120000000E+03 0.  0.
        998    1    1    2    0    0 -0.75913949955E+01  0.33772205250E+02  0.13383870385E+04  0.13388719341E+04  0.10000000000E+02 0. -1.
</event>
<event>
 5    1  0.1360042E-008  0.3773694E+03  0.7957747E-01  0.3462693E+00
         13   -1    0    0    0    0  0.00000000000E+00  0.00000000000E+00  0.14999999963E+04  0.15000000000E+04  0.10566000000E+00 0.  1.
        994   -1    0    0    0    0 -0.00000000000E+00 -0.00000000000E+00  0.11368683772E-12  0.17120000000E+03  0.17120000000E+03 0.  0.
         13    1    1    2    0    0  0.30354708159E+02 -0.48506446942E+02  0.10161546681E+03  0.11661902916E+03  0.10566000000E+00 0.  1.
        994    1    1    2    0    0 -0.21164097654E+02  0.42690370654E+02  0.23082943911E+02  0.17920002532E+03  0.17120000000E+03 0.  0.
        998    1    1    2    0    0 -0.91906105054E+01  0.58160762881E+01  0.13753015856E+04  0.13753809455E+04  0.10000000000E+02 0.  1.
</event>
<event>
 5    1  0.1360042E-008  0.3737645E+03  0.7957747E-01  0.3478767E+00
         13   -1    0    0    0    0  0.00000000000E+00  0.00000000000E+00  0.14999999963E+04  0.15000000000E+04  0.10566000000E+00 0. -1.
        994   -1    0    0    0    0 -0.00000000000E+00 -0.00000000000E+00  0.11368683772E-12  0.17120000000E+03  0.17120000000E+03 0.  0.
         13    1    1    2    0    0 -0.10423456400E+02 -0.62415003110E+01  0.65925623705E+01  0.13823089817E+02  0.10566000000E+00 0. -1.
        994    1    1    2    0    0  0.11193292187E+02  0.16996259081E+02  0.87295601227E+01  0.17262620842E+03  0.17120000000E+03 0.  0.
        998    1    1    2    0    0 -0.76983578711E+00 -0.10754758770E+02  0.14846778738E+04  0.14847507018E+04  0.10000000000E+02 0. -1.
</event>
<event>
 5    1  0.1360042E-008  0.3740624E+03  0.7957747E-01  0.3477427E+00
         13   -1    0    0    0    0  0.00000000000E+00  0.00000000000E+00  0.14999999963E+04  0.15000000000E+04  0.10566000000E+00 0.  1.
        994   -1    0    0    0    0 -0.00000000000E+00 -0.00000000000E+00  0.11368683772E-12  0.17120000000E+03  0.17120000000E+03 0.  0.
         13    1    1    2    0    0 -0.65378988079E+02  0.14145668020E+01  0.35903475538E+03  0.36494161152E+03  0.10566000000E+00 0.  1.
        994    1    1    2    0    0  0.16661777157E+02 -0.41106076906E+02  0.13899316096E+02  0.17739773213E+03  0.17120000000E+03 0.  0.
        998    1    1    2    0    0  0.48717210922E+02  0.39691510104E+02  0.11270659248E+04  0.11288606564E+04  0.10000000000E+02 0.  1.
</event>
<event>
 5    1  0.1360042E-008  0.3798596E+03  0.7957747E-01  0.3451770E+00
         13   -1    0    0    0    0  0.00000000000E+00  0.00000000000E+00  0.14999999963E+04  0.15000000000E+04  0.10566000000E+00 0. -1.
        994   -1    0    0    0    0 -0.00000000000E+00 -0.00000000000E+00  0.11368683772E-12  0.17120000000E+03  0.17120000000E+03 0.  0.
         13    1    1    2    0    0 -0.79130272631E+02 -0.24822212360E+02  0.46688294713E+03  0.47419135352E+03  0.10566000000E+00 0. -1.
        994    1    1    2    0    0  0.94013698890E+02  0.25308749069E+02  0.36587570741E+02  0.20031774432E+03  0.17120000000E+03 0.  0.
        998    1    1    2    0    0 -0.14883426259E+02 -0.48653670878E+00  0.99652947841E+03  0.99669090215E+03  0.10000000000E+02 0.  1.
</event>
<event>
 5    1  0.1360042E-008  0.3749307E+03  0.7957747E-01  0.3473533E+00
         13   -1    0    0    0    0  0.00000000000E+00  0.00000000000E+00  0.14999999963E+04  0.15000000000E+04  0.10566000000E+00 0.  1.
        994   -1    0    0    0    0 -0.00000000000E+00 -0.00000000000E+00  0.11368683772E-12  0.17120000000E+03  0.17120000000E+03 0.  0.
         13    1    1    2    0    0  0.25538212126E+02  0.39771350583E+02  0.80421350778E+02  0.93282181743E+02  0.10566000000E+00 0.  1.
        994    1    1    2    0    0  0.20605301306E+02 -0.35968846821E+02  0.19708103676E+02  0.17724611627E+03  0.17120000000E+03 0.  0.
        998    1    1    2    0    0 -0.46143513432E+02 -0.38025037616E+01  0.13998705418E+04  0.14006717020E+04  0.10000000000E+02 0.  1.
</event>
<event>
 5    1  0.2896014E-008  0.3854615E+03  0.7957747E-01  0.3427717E+00
         13   -1    0    0    0    0  0.00000000000E+00  0.00000000000E+00  0.14999999963E+04  0.15000000000E+04  0.10566000000E+00 0.  1.
        994   -1    0    0    0    0 -0.00000000000E+00 -0.00000000000E+00  0.11368683772E-12  0.17120000000E+03  0.17120000000E+03 0.  0.
         13    1    1    2    0    0  0.14839828442E+02 -0.18974099493E+01  0.84303330995E+02  0.85620578447E+02  0.10566000000E+00 0.  1.
        994    1    1    2    0    0 -0.33637441825E+01  0.89759963887E+00  0.14409685513E+01  0.17124145774E+03  0.17120000000E+03 0.  0.
        998    1    1    2    0    0 -0.11476084260E+02  0.99981031040E+00  0.14142556967E+04  0.14143379638E+04  0.10000000000E+02 0. -1.
</event>
<event>
 5    1  0.1360042E-008  0.3776492E+03  0.7957747E-01  0.3461459E+00
         13   -1    0    0    0    0  0.00000000000E+00  0.00000000000E+00  0.14999999963E+04  0.15000000000E+04  0.10566000000E+00 0. -1.
        994   -1    0    0    0    0 -0.00000000000E+00 -0.00000000000E+00  0.11368683772E-12  0.17120000000E+03  0.17120000000E+03 0.  0.
         13    1    1    2    0    0 -0.19508820283E+02  0.20173157775E+02  0.67027723921E+02  0.72665516592E+02  0.10566000000E+00 0. -1.
        994    1    1    2    0    0  0.26142535722E+02 -0.25137060567E+02  0.97687468429E+01  0.17527171022E+03  0.17120000000E+03 0.  0.
        998    1    1    2    0    0 -0.66337154390E+01  0.49639027929E+01  0.14232035255E+04  0.14232627732E+04  0.10000000000E+02 0. -1.
</event>
<event>
 5    1  0.1360042E-008  0.3743169E+03  0.7957747E-01  0.3476283E+00
         13   -1    0    0    0    0  0.00000000000E+00  0.00000000000E+00  0.14999999963E+04  0.15000000000E+04  0.10566000000E+00 0. -1.
        994   -1    0    0    0    0 -0.00000000000E+00 -0.00000000000E+00  0.11368683772E-12  0.17120000000E+03  0.17120000000E+03 0.  0.
         13    1    1    2    0    0  0.13272485784E+02 -0.51045738414E+02  0.21633474544E+03  0.22267141608E+03  0.10566000000E+00 0. -1.
        994    1    1    2    0    0 -0.16379651856E+02  0.10656031636E+02  0.83319584404E+01  0.17251291412E+03  0.17120000000E+03 0.  0.
        998    1    1    2    0    0  0.31071660722E+01  0.40389706778E+02  0.12753332924E+04  0.12760156698E+04  0.10000000000E+02 0. -1.
</event>
<event>
 5    1  0.1360042E-008  0.3968331E+03  0.7957747E-01  0.3380986E+00
         13   -1    0    0    0    0  0.00000000000E+00  0.00000000000E+00  0.14999999963E+04  0.15000000000E+04  0.10566000000E+00 0.  1.
        994   -1    0    0    0    0 -0.00000000000E+00 -0.00000000000E+00  0.11368683772E-12  0.17120000000E+03  0.17120000000E+03 0.  0.
         13    1    1    2    0    0 -0.10576775836E+03  0.16744562657E+02  0.19930305720E+03  0.22624968256E+03  0.10566000000E+00 0.  1.
        994    1    1    2    0    0  0.82833975598E+02 -0.42112305388E+02  0.60116939332E+02  0.20385877507E+03  0.17120000000E+03 0.  0.
        998    1    1    2    0    0  0.22933782760E+02  0.25367742731E+02  0.12405799997E+04  0.12410915424E+04  0.10000000000E+02 0.  1.
</event>
<event>
 5    1  0.1360042E-008  0.3740362E+03  0.7957747E-01  0.3477545E+00
         13   -1    0    0    0    0  0.00000000000E+00  0.00000000000E+00  0.14999999963E+04  0.15000000000E+04  0.10566000000E+00 0.  1.
        994   -1    0    0    0    0 -0.00000000000E+00 -0.00000000000E+00  0.11368683772E-12  0.17120000000E+03  0.17120000000E+03 0.  0.
         13    1    1    2    0    0  0.31353224489E+02 -0.11428772058E+02  0.69838274354E+02  0.77401790970E+02  0.10566000000E+00 0.  1.
        994    1    1    2    0    0 -0.39722003789E+02  0.11440956417E+02  0.13024191568E+02  0.17660068696E+03  0.17120000000E+03 0.  0.
        998    1    1    2    0    0  0.83687792999E+01 -0.12184358504E-01  0.14171375304E+04  0.14171975221E+04  0.10000000000E+02 0.  1.
</event>
<event>
 5    1  0.1360042E-008  0.3843966E+03  0.7957747E-01  0.3432235E+00
         13   -1    0    0    0    0  0.00000000000E+00  0.00000000000E+00  0.14999999963E+04  0.15000000000E+04  0.10566000000E+00 0.  1.
        994   -1    0    0    0    0 -0.00000000000E+00 -0.00000000000E+00  0.11368683772E-12  0.17120000000E+03  0.17120000000E+03 0.  0.
         13    1    1    2    0    0  0.26385647739E+01 -0.21657993913E+02  0.12240633381E+03  0.12433564430E+03  0.10566000000E+00 0.  1.
        994    1    1    2    0    0  0.45148638200E+00  0.14339422966E+02  0.26084869880E+01  0.17181986816E+03  0.17120000000E+03 0.  0.
        998    1    1    2    0    0 -0.30900511559E+01  0.73185709474E+01  0.13749851755E+04  0.13750444875E+04  0.10000000000E+02 0.  1.
</event>
<event>
 5    1  0.1360042E-008  0.3829851E+03  0.7957747E-01  0.3438263E+00
         13   -1    0    0    0    0  0.00000000000E+00  0.00000000000E+00  0.14999999963E+04  0.15000000000E+04  0.10566000000E+00 0. -1.
        994   -1    0    0    0    0 -0.00000000000E+00 -0.00000000000E+00  0.11368683772E-12  0.17120000000E+03  0.17120000000E+03 0.  0.
         13    1    1    2    0    0  0.70056004355E+01 -0.10185851693E+02  0.30809316126E+02  0.33197215792E+02  0.10566000000E+00 0. -1.
        994    1    1    2    0    0  0.30992496246E+01 -0.17840109600E+02  0.37199011622E+01  0.17219510017E+03  0.17120000000E+03 0.  0.
        998    1    1    2    0    0 -0.10104850060E+02  0.28025961294E+02  0.14654707790E+04  0.14658076840E+04  0.10000000000E+02 0. -1.
</event>
<event>
 5    1  0.1360042E-008  0.3776720E+03  0.7957747E-01  0.3461358E+00
         13   -1    0    0    0    0  0.00000000000E+00  0.00000000000E+00  0.14999999963E+04  0.15000000000E+04  0.10566000000E+00 0. -1.
        994   -1    0    0    0    0 -0.00000000000E+00 -0.00000000000E+00  0.11368683772E-12  0.17120000000E+03  0.17120000000E+03 0.  0.
         13    1    1    2    0    0 -0.75411819870E+01  0.21375082505E+02  0.45968194445E+02  0.51252801313E+02  0.10566000000E+00 0. -1.
        994    1    1    2    0    0  0.15157164049E+02 -0.12672328231E+02  0.66289975357E+01  0.17246365163E+03  0.17120000000E+03 0.  0.
        998    1    1    2    0    0 -0.76159820616E+01 -0.87027542739E+01  0.14474028043E+04  0.14474835471E+04  0.10000000000E+02 0. -1.
</event>
<event>
 5    1  0.1360042E-008  0.3685698E+03  0.7957747E-01  0.3502490E+00
         13   -1    0    0    0    0  0.00000000000E+00  0.00000000000E+00  0.14999999963E+04  0.15000000000E+04  0.10566000000E+00 0.  1.
        994   -1    0    0    0    0 -0.00000000000E+00 -0.00000000000E+00  0.11368683772E-12  0.17120000000E+03  0.17120000000E+03 0.  0.
         13    1    1    2    0    0 -0.43309541043E+02 -0.29155469327E+02  0.12719060031E+03  0.13748897304E+03  0.10566000000E+00 0.  1.
        994    1    1    2    0    0  0.41315504305E+02  0.14721848823E+02  0.16732904546E+02  0.17751938999E+03  0.17120000000E+03 0.  0.
        998    1    1    2    0    0  0.19940367379E+01  0.14433620504E+02  0.13560764914E+04  0.13561916370E+04  0.10000000000E+02 0.  1.
</event>
<event>
 5    1  0.1360042E-008  0.3847595E+03  0.7957747E-01  0.3430693E+00
         13   -1    0    0    0    0  0.00000000000E+00  0.00000000000E+00  0.14999999963E+04  0.15000000000E+04  0.10566000000E+00 0.  1.
        994   -1    0    0    0    0 -0.00000000000E+00 -0.00000000000E+00  0.11368683772E-12  0.17120000000E+03  0.17120000000E+03 0.  0.
         13    1    1    2    0    0  0.15939398784E+02  0.79214124187E+01  0.89352181328E+02  0.91107829962E+02  0.10566000000E+00 0.  1.
        994    1    1    2    0    0 -0.97856997237E+01 -0.98988406985E+01  0.23874918158E+01  0.17178150973E+03  0.17120000000E+03 0.  0.
        998    1    1    2    0    0 -0.61536990605E+01  0.19774282798E+01  0.14082603231E+04  0.14083106603E+04  0.10000000000E+02 0.  1.
</event>
<event>
 5    1  0.1360042E-008  0.3758490E+03  0.7957747E-01  0.3469434E+00
         13   -1    0    0    0    0  0.00000000000E+00  0.00000000000E+00  0.14999999963E+04  0.15000000000E+04  0.10566000000E+00 0.  1.
        994   -1    0    0    0    0 -0.00000000000E+00 -0.00000000000E+00  0.11368683772E-12  0.17120000000E+03  0.17120000000E+03 0.  0.
         13    1    1    2    0    0 -0.24855911359E+02  0.94093171319E+01  0.18796100755E+02  0.32552360068E+02  0.10566000000E+00 0.  1.
        994    1    1    2    0    0  0.24788534595E+02 -0.15654572146E+02  0.17139512229E+02  0.17453578417E+03  0.17120000000E+03 0.  0.
        998    1    1    2    0    0  0.67376764255E-01  0.62452550143E+01  0.14640643833E+04  0.14641118558E+04  0.10000000000E+02 0.  1.
</event>
<event>
 5    1  0.1360042E-008  0.3816123E+03  0.7957747E-01  0.3444168E+00
         13   -1    0    0    0    0  0.00000000000E+00  0.00000000000E+00  0.14999999963E+04  0.15000000000E+04  0.10566000000E+00 0.  1.
        994   -1    0    0    0    0 -0.00000000000E+00 -0.00000000000E+00  0.11368683772E-12  0.17120000000E+03  0.17120000000E+03 0.  0.
         13    1    1    2    0    0  0.61017981420E+01  0.11723390642E+02  0.25383052614E+02  0.28617832775E+02  0.10566000000E+00 0.  1.
        994    1    1    2    0    0 -0.22907227821E+01 -0.36854167526E+01  0.33840703594E+01  0.17128841654E+03  0.17120000000E+03 0.  0.
        998    1    1    2    0    0 -0.38110753599E+01 -0.80379738890E+01  0.14712328733E+04  0.14712937507E+04  0.10000000000E+02 0.  1.
</event>
<event>
 5    1  0.1360042E-008  0.4013341E+03  0.7957747E-01  0.3363220E+00
         13   -1    0    0    0    0  0.00000000000E+00  0.00000000000E+00  0.14999999963E+04  0.15000000000E+04  0.10566000000E+00 0. -1.
        994   -1    0    0    0    0 -0.00000000000E+00 -0.00000000000E+00  0.11368683772E-12  0.17120000000E+03  0.17120000000E+03 0.  0.
         13    1    1    2    0    0  0.14987704651E+03 -0.20787643779E+02  0.34337651661E+03  0.37523685657E+03  0.10566000000E+00 0. -1.
        994    1    1    2    0    0 -0.12610190925E+03 -0.28403357447E+02  0.97930283023E+02  0.23581395753E+03  0.17120000000E+03 0.  0.
        998    1    1    2    0    0 -0.23775137256E+02  0.49191001226E+02  0.10586931966E+04  0.10601491859E+04  0.10000000000E+02 0. -1.
</event>
<event>
 5    1  0.1360042E-008  0.3805890E+03  0.7957747E-01  0.3448598E+00
         13   -1    0    0    0    0  0.00000000000E+00  0.00000000000E+00  0.14999999963E+04  0.15000000000E+04  0.10566000000E+00 0. -1.
        994   -1    0    0    0    0 -0.00000000000E+00 -0.00000000000E+00  0.11368683772E-12  0.17120000000E+03  0.17120000000E+03 0.  0.
         13    1    1    2    0    0 -0.30839138184E+02  0.87700445356E+01  0.12254742559E+03  0.12667221008E+03  0.10566000000E+00 0. -1.
        994    1    1    2    0    0  0.34625675619E+02  0.14568401316E+01  0.78537250762E+01  0.17484902285E+03  0.17120000000E+03 0.  0.
        998    1    1    2    0    0 -0.37865374352E+01 -0.10226884667E+02  0.13695988456E+04  0.13696787671E+04  0.10000000000E+02 0. -1.
</event>
<event>
 5    1  0.1452479E-008  0.3861930E+03  0.7957747E-01  0.3424628E+00
         13   -1    0    0    0    0  0.00000000000E+00  0.00000000000E+00  0.14999999963E+04  0.15000000000E+04  0.10566000000E+00 0. -1.
        994   -1    0    0    0    0 -0.00000000000E+00 -0.00000000000E+00  0.11368683772E-12  0.17120000000E+03  0.17120000000E+03 0.  0.
         13    1    1    2    0    0  0.11824545376E+02 -0.14540218230E+01  0.68756130461E+02  0.69780732963E+02  0.10566000000E+00 0. -1.
        994    1    1    2    0    0 -0.92643098602E+01 -0.19762705818E+01  0.13330243244E+01  0.17146705233E+03  0.17120000000E+03 0.  0.
        998    1    1    2    0    0 -0.25602355160E+01  0.34302924048E+01  0.14299108415E+04  0.14299522147E+04  0.10000000000E+02 0. -1.
</event>
<event>
 5    1  0.1360042E-008  0.3809638E+03  0.7957747E-01  0.3446972E+00
         13   -1    0    0    0    0  0.00000000000E+00  0.00000000000E+00  0.14999999963E+04  0.15000000000E+04  0.10566000000E+00 0.  1.
        994   -1    0    0    0    0 -0.00000000000E+00 -0.00000000000E+00  0.11368683772E-12  0.17120000000E+03  0.17120000000E+03 0.  0.
         13    1    1    2    0    0 -0.51493321571E+01 -0.18615068270E+02  0.52441135572E+02  0.55884883936E+02  0.10566000000E+00 0.  1.
        994    1    1    2    0    0  0.15172084949E+01 -0.49755363423E+00  0.36559012417E+01  0.17124647469E+03  0.17120000000E+03 0.  0.
        998    1    1    2    0    0  0.36321236622E+01  0.19112621904E+02  0.14439029595E+04  0.14440686414E+04  0.10000000000E+02 0.  1.
</event>
<event>
 5    1  0.1360042E-008  0.3763470E+03  0.7957747E-01  0.3467220E+00
         13   -1    0    0    0    0  0.00000000000E+00  0.00000000000E+00  0.14999999963E+04  0.15000000000E+04  0.10566000000E+00 0.  1.
        994   -1    0    0    0    0 -0.00000000000E+00 -0.00000000000E+00  0.11368683772E-12  0.17120000000E+03  0.17120000000E+03 0.  0.
         13    1    1    2    0    0  0.23628993258E+02  0.32242268912E+02  0.12503664303E+03  0.13127096591E+03  0.10566000000E+00 0.  1.
        994    1    1    2    0    0 -0.18713238734E+02 -0.28368085444E+02  0.99066782587E+01  0.17482138270E+03  0.17120000000E+03 0.  0.
        998    1    1    2    0    0 -0.49157545242E+01 -0.38741834685E+01  0.13650566750E+04  0.13651076514E+04  0.10000000000E+02 0.  1.
</event>
<event>
 5    1  0.1360042E-008  0.3853152E+03  0.7957747E-01  0.3428336E+00
         13   -1    0    0    0    0  0.00000000000E+00  0.00000000000E+00  0.14999999963E+04  0.15000000000E+04  0.10566000000E+00 0. -1.
        994   -1    0    0    0    0 -0.00000000000E+00 -0.00000000000E+00  0.11368683772E-12  0.17120000000E+03  0.17120000000E+03 0.  0.
         13    1    1    2    0    0 -0.10985064402E+02  0.29341281267E+00  0.41155536198E+02  0.42597500570E+02  0.10566000000E+00 0. -1.
        994    1    1    2    0    0  0.68494786650E+01  0.43332046489E+01  0.16895647038E+01  0.17140007774E+03  0.17120000000E+03 0.  0.
        998    1    1    2    0    0  0.41355857373E+01 -0.46266174615E+01  0.14571548954E+04  0.14572024217E+04  0.10000000000E+02 0. -1.
</event>
<event>
 5    1  0.1360042E-008  0.3832197E+03  0.7957747E-01  0.3437258E+00
         13   -1    0    0    0    0  0.00000000000E+00  0.00000000000E+00  0.14999999963E+04  0.15000000000E+04  0.10566000000E+00 0. -1.
        994   -1    0    0    0    0 -0.00000000000E+00 -0.00000000000E+00  0.11368683772E-12  0.17120000000E+03  0.17120000000E+03 0.  0.
         13    1    1    2    0    0 -0.11904840963E+02  0.49693239925E+01  0.31591816844E+02  0.34124382410E+02  0.10566000000E+00 0. -1.
        994    1    1    2    0    0  0.14593086475E+02 -0.21483693797E+01  0.32366101323E+01  0.17186474132E+03  0.17120000000E+03 0.  0.
        998    1    1    2    0    0 -0.26882455124E+01 -0.28209546128E+01  0.14651715693E+04  0.14652108763E+04  0.10000000000E+02 0. -1.
</event>
<event>
 5    1  0.1360042E-008  0.3759003E+03  0.7957747E-01  0.3469206E+00
         13   -1    0    0    0    0  0.00000000000E+00  0.00000000000E+00  0.14999999963E+04  0.15000000000E+04  0.10566000000E+00 0. -1.
        994   -1    0    0    0    0 -0.00000000000E+00 -0.00000000000E+00  0.11368683772E-12  0.17120000000E+03  0.17120000000E+03 0.  0.
         13    1    1    2    0    0 -0.55370536442E+02 -0.63733727892E+01  0.21244356364E+03  0.21963331961E+03  0.10566000000E+00 0. -1.
        994    1    1    2    0    0  0.61594896647E+02 -0.27849005963E+02  0.21863383151E+02  0.18535626763E+03  0.17120000000E+03 0.  0.
        998    1    1    2    0    0 -0.62243602049E+01  0.34222378752E+02  0.12656930495E+04  0.12662104128E+04  0.10000000000E+02 0. -1.
</event>
<event>
 5    1  0.1360042E-008  0.3854353E+03  0.7957747E-01  0.3427828E+00
         13   -1    0    0    0    0  0.00000000000E+00  0.00000000000E+00  0.14999999963E+04  0.15000000000E+04  0.10566000000E+00 0. -1.
        994   -1    0    0    0    0 -0.00000000000E+00 -0.00000000000E+00  0.11368683772E-12  0.17120000000E+03  0.17120000000E+03 0.  0.
         13    1    1    2    0    0  0.19706686930E+01  0.12027658711E+02  0.53357703321E+02  0.54732109195E+02  0.10566000000E+00 0. -1.
        994    1    1    2    0    0  0.36860280136E+01 -0.69317703370E+01  0.16166020326E+01  0.17138754227E+03  0.17120000000E+03 0.  0.
        998    1    1    2    0    0 -0.56566967066E+01 -0.50958883736E+01  0.14450256909E+04  0.14450803485E+04  0.10000000000E+02 0. -1.
</event>
<event>
 5    1  0.1360042E-008  0.3717263E+03  0.7957747E-01  0.3487995E+00
         13   -1    0    0    0    0  0.00000000000E+00  0.00000000000E+00  0.14999999963E+04  0.15000000000E+04  0.10566000000E+00 0.  1.
        994   -1    0    0    0    0 -0.00000000000E+00 -0.00000000000E+00  0.11368683772E-12  0.17120000000E+03  0.17120000000E+03 0.  0.
         13    1    1    2    0    0  0.63712608300E+02  0.41263380887E+01  0.27716007492E+03  0.28441877825E+03  0.10566000000E+00 0.  1.
        994    1    1    2    0    0 -0.17038018671E+02  0.14670119410E+02  0.10109011339E+02  0.17296571508E+03  0.17120000000E+03 0.  0.
        998    1    1    2    0    0 -0.46674589629E+02 -0.18796457499E+02  0.12127309100E+04  0.12138155067E+04  0.10000000000E+02 0.  1.
</event>
<event>
 5    1  0.1360042E-008  0.3833745E+03  0.7957747E-01  0.3436596E+00
         13   -1    0    0    0    0  0.00000000000E+00  0.00000000000E+00  0.14999999963E+04  0.15000000000E+04  0.10566000000E+00 0. -1.
        994   -1    0    0    0    0 -0.00000000000E+00 -0.00000000000E+00  0.11368683772E-12  0.17120000000E+03  0.17120000000E+03 0.  0.
         13    1    1    2    0    0  0.11118879792E+02 -0.15092379328E+02  0.74818609661E+02  0.77131348473E+02  0.10566000000E+00 0. -1.
        994    1    1    2    0    0  0.23675105241E+01  0.64611798517E+01  0.25958895883E+01  0.17135790205E+03  0.17120000000E+03 0.  0.
        998    1    1    2    0    0 -0.13486390316E+02  0.86311994764E+01  0.14225854970E+04  0.14227107495E+04  0.10000000000E+02 0. -1.
</event>
<event>
 5    1  0.1360042E-008  0.3858051E+03  0.7957747E-01  0.3426265E+00
         13   -1    0    0    0    0  0.00000000000E+00  0.00000000000E+00  0.14999999963E+04  0.15000000000E+04  0.10566000000E+00 0. -1.
        994   -1    0    0    0    0 -0.00000000000E+00 -0.00000000000E+00  0.11368683772E-12  0.17120000000E+03  0.17120000000E+03 0.  0.
         13    1    1    2    0    0 -0.76343518010E+01  0.96869581692E+01  0.62191259773E+02  0.63402558640E+02  0.10566000000E+00 0. -1.
        994    1    1    2    0    0  0.39812154928E+01 -0.77574587707E+01  0.14803402452E+01  0.17142829303E+03  0.17120000000E+03 0.  0.
        998    1    1    2    0    0  0.36531363082E+01 -0.19294993984E+01  0.14363283963E+04  0.14363691483E+04  0.10000000000E+02 0. -1.
</event>
<event>
 5    1  0.1360042E-008  0.3851502E+03  0.7957747E-01  0.3429035E+00
         13   -1    0    0    0    0  0.00000000000E+00  0.00000000000E+00  0.14999999963E+04  0.15000000000E+04  0.10566000000E+00 0. -1.
        994   -1    0    0    0    0 -0.00000000000E+00 -0.00000000000E+00  0.11368683772E-12  0.17120000000E+03  0.17120000000E+03 0.  0.
         13    1    1    2    0    0  0.14326865049E+02 -0.31201243102E+01  0.68023611504E+02  0.69586041157E+02  0.10566000000E+00 0. -1.
        994    1    1    2    0    0 -0.12147340256E+02  0.19720754411E+01  0.20535383475E+01  0.17165402406E+03  0.17120000000E+03 0.  0.
        998    1    1    2    0    0 -0.21795247931E+01  0.11480488692E+01  0.14299228464E+04  0.14299599348E+04  0.10000000000E+02 0. -1.
</event>
<event>
 5    1  0.1360042E-008  0.3812111E+03  0.7957747E-01  0.3445902E+00
         13   -1    0    0    0    0  0.00000000000E+00  0.00000000000E+00  0.14999999963E+04  0.15000000000E+04  0.10566000000E+00 0.  1.
        994   -1    0    0    0    0 -0.00000000000E+00 -0.00000000000E+00  0.11368683772E-12  0.17120000000E+03  0.17120000000E+03 0.  0.
         13    1    1    2    0    0  0.79049525828E+01  0.34457687871E+02  0.18358210463E+03  0.18695513054E+03  0.10566000000E+00 0.  1.
        994    1    1    2    0    0  0.11647981503E+02 -0.18662895677E+02  0.51361314066E+01  0.17268410174E+03  0.17120000000E+03 0.  0.
        998    1    1    2    0    0 -0.19552934086E+02 -0.15794792194E+02  0.13112817602E+04  0.13115607677E+04  0.10000000000E+02 0.  1.
</event>
<event>
 5    1  0.1360042E-008  0.3743757E+03  0.7957747E-01  0.3476019E+00
         13   -1    0    0    0    0  0.00000000000E+00  0.00000000000E+00  0.14999999963E+04  0.15000000000E+04  0.10566000000E+00 0.  1.
        994   -1    0    0    0    0 -0.00000000000E+00 -0.00000000000E+00  0.11368683772E-12  0.17120000000E+03  0.17120000000E+03 0.  0.
         13    1    1    2    0    0  0.13069096763E+03 -0.10574374018E+02  0.65251543302E+03  0.66555867352E+03  0.10566000000E+00 0.  1.
        994    1    1    2    0    0 -0.75716347302E+02  0.18564666277E+02  0.35177251105E+02  0.19137526245E+03  0.17120000000E+03 0.  0.
        998    1    1    2    0    0 -0.54974620325E+02 -0.79902922594E+01  0.81230731216E+03  0.81426606403E+03  0.10000000000E+02 0.  1.
</event>
<event>
 5    1  0.1360042E-008  0.3847850E+03  0.7957747E-01  0.3430585E+00
         13   -1    0    0    0    0  0.00000000000E+00  0.00000000000E+00  0.14999999963E+04  0.15000000000E+04  0.10566000000E+00 0. -1.
        994   -1    0    0    0    0 -0.00000000000E+00 -0.00000000000E+00  0.11368683772E-12  0.17120000000E+03  0.17120000000E+03 0.  0.
         13    1    1    2    0    0  0.13303885216E+02 -0.10312209614E+01  0.49784816454E+02  0.51542175855E+02  0.10566000000E+00 0. -1.
        994    1    1    2    0    0 -0.13378324127E+02  0.56738500733E+01  0.24321843442E+01  0.17183284800E+03  0.17120000000E+03 0.  0.
        998    1    1    2    0    0  0.74438911432E-01 -0.46426291119E+01  0.14477829955E+04  0.14478249761E+04  0.10000000000E+02 0. -1.
</event>
<event>
 5    1  0.1360042E-008  0.3818663E+03  0.7957747E-01  0.3443072E+00
         13   -1    0    0    0    0  0.00000000000E+00  0.00000000000E+00  0.14999999963E+04  0.15000000000E+04  0.10566000000E+00 0.  1.
        994   -1    0    0    0    0 -0.00000000000E+00 -0.00000000000E+00  0.11368683772E-12  0.17120000000E+03  0.17120000000E+03 0.  0.
         13    1    1    2    0    0  0.86806253969E+01 -0.21841875324E+02  0.82845643328E+02  0.86115228372E+02  0.10566000000E+00 0.  1.
        994    1    1    2    0    0 -0.71052118250E+01  0.19290466049E+02  0.45993191607E+01  0.17249115877E+03  0.17120000000E+03 0.  0.
        998    1    1    2    0    0 -0.15754135719E+01  0.25514092747E+01  0.14125550338E+04  0.14125936129E+04  0.10000000000E+02 0.  0.
</event>
<event>
 5    1  0.1360042E-008  0.3843706E+03  0.7957747E-01  0.3432346E+00
         13   -1    0    0    0    0  0.00000000000E+00  0.00000000000E+00  0.14999999963E+04  0.15000000000E+04  0.10566000000E+00 0. -1.
        994   -1    0    0    0    0 -0.00000000000E+00 -0.00000000000E+00  0.11368683772E-12  0.17120000000E+03  0.17120000000E+03 0.  0.
         13    1    1    2    0    0 -0.47192637980E+01  0.22097616835E+02  0.13014311966E+03  0.13209019221E+03  0.10566000000E+00 0. -1.
        994    1    1    2    0    0 -0.22886977527E+01 -0.15675730493E+02  0.27704066926E+01  0.17195371999E+03  0.17120000000E+03 0.  0.
        998    1    1    2    0    0  0.70079615507E+01 -0.64218863421E+01  0.13670864699E+04  0.13671560878E+04  0.10000000000E+02 0. -1.
</event>
<event>
 5    1  0.1360042E-008  0.4114251E+03  0.7957747E-01  0.3324791E+00
         13   -1    0    0    0    0  0.00000000000E+00  0.00000000000E+00  0.14999999963E+04  0.15000000000E+04  0.10566000000E+00 0.  1.
        994   -1    0    0    0    0 -0.00000000000E+00 -0.00000000000E+00  0.11368683772E-12  0.17120000000E+03  0.17120000000E+03 0.  0.
         13    1    1    2    0    0 -0.63064486111E+02  0.69592239221E+02  0.10807023907E+03  0.14317610452E+03  0.10566000000E+00 0.  1.
        994    1    1    2    0    0  0.68022236524E+02 -0.65528920973E+02  0.72490964617E+02  0.20853163812E+03  0.17120000000E+03 0.  0.
        998    1    1    2    0    0 -0.49577504133E+01 -0.40633182480E+01  0.13194387926E+04  0.13194922574E+04  0.10000000000E+02 0.  0.
</event>
<event>
 5    1  0.1360042E-008  0.3859882E+03  0.7957747E-01  0.3425492E+00
         13   -1    0    0    0    0  0.00000000000E+00  0.00000000000E+00  0.14999999963E+04  0.15000000000E+04  0.10566000000E+00 0.  1.
        994   -1    0    0    0    0 -0.00000000000E+00 -0.00000000000E+00  0.11368683772E-12  0.17120000000E+03  0.17120000000E+03 0.  0.
         13    1    1    2    0    0  0.97605509377E+01 -0.38793584955E+01  0.43927045822E+02  0.45165410390E+02  0.10566000000E+00 0.  1.
        994    1    1    2    0    0 -0.25859615566E+02  0.21736637984E+01  0.33510689998E+01  0.17318808907E+03  0.17120000000E+03 0.  0.
        998    1    1    2    0    0  0.16099064628E+02  0.17056946971E+01  0.14527218815E+04  0.14528465005E+04  0.10000000000E+02 0.  1.
</event>
<event>
 5    1  0.1360042E-008  0.3862346E+03  0.7957747E-01  0.3424453E+00
         13   -1    0    0    0    0  0.00000000000E+00  0.00000000000E+00  0.14999999963E+04  0.15000000000E+04  0.10566000000E+00 0.  1.
        994   -1    0    0    0    0 -0.00000000000E+00 -0.00000000000E+00  0.11368683772E-12  0.17120000000E+03  0.17120000000E+03 0.  0.
         13    1    1    2    0    0 -0.30187403906E+01 -0.10354774527E+02  0.54055111512E+02  0.55120780053E+02  0.10566000000E+00 0.  1.
        994    1    1    2    0    0 -0.17054650626E+00  0.17979390073E+02  0.20780811820E+01  0.17215413435E+03  0.17120000000E+03 0.  0.
        998    1    1    2    0    0  0.31892868969E+01 -0.76246155459E+01  0.14438668036E+04  0.14439250856E+04  0.10000000000E+02 0.  1.
</event>
<event>
 5    1  0.1360042E-008  0.3800524E+03  0.7957747E-01  0.3450930E+00
         13   -1    0    0    0    0  0.00000000000E+00  0.00000000000E+00  0.14999999963E+04  0.15000000000E+04  0.10566000000E+00 0.  1.
        994   -1    0    0    0    0 -0.00000000000E+00 -0.00000000000E+00  0.11368683772E-12  0.17120000000E+03  0.17120000000E+03 0.  0.
         13    1    1    2    0    0 -0.21274481481E+02  0.35643476933E+02  0.18939846547E+03  0.19389391660E+03  0.10566000000E+00 0.  1.
        994    1    1    2    0    0  0.10659067253E+02 -0.37456143538E+02  0.91922904870E+01  0.17581386921E+03  0.17120000000E+03 0.  0.
        998    1    1    2    0    0  0.10615414228E+02  0.18126666049E+01  0.13014092403E+04  0.13014922142E+04  0.10000000000E+02 0.  1.
</event>
<event>
 5    1  0.1360042E-008  0.3834609E+03  0.7957747E-01  0.3436226E+00
         13   -1    0    0    0    0  0.00000000000E+00  0.00000000000E+00  0.14999999963E+04  0.15000000000E+04  0.10566000000E+00 0.  1.
        994   -1    0    0    0    0 -0.00000000000E+00 -0.00000000000E+00  0.11368683772E-12  0.17120000000E+03  0.17120000000E+03 0.  0.
         13    1    1    2    0    0 -0.83182045387E-02 -0.12736932372E+02  0.32355121140E+02  0.34772036804E+02  0.10566000000E+00 0.  1.
        994    1    1    2    0    0 -0.17386919288E+01  0.14672845952E+02  0.31180818168E+01  0.17186470811E+03  0.17120000000E+03 0.  0.
        998    1    1    2    0    0  0.17470101334E+01 -0.19359135796E+01  0.14645267933E+04  0.14645632551E+04  0.10000000000E+02 0.  1.
</event>
<event>
 5    1  0.1360042E-008  0.3767162E+03  0.7957747E-01  0.3465583E+00
         13   -1    0    0    0    0  0.00000000000E+00  0.00000000000E+00  0.14999999963E+04  0.15000000000E+04  0.10566000000E+00 0.  1.
        994   -1    0    0    0    0 -0.00000000000E+00 -0.00000000000E+00  0.11368683772E-12  0.17120000000E+03  0.17120000000E+03 0.  0.
         13    1    1    2    0    0  0.10389265973E+02 -0.33447941216E+01  0.74871514985E+01  0.13236052915E+02  0.10566000000E+00 0.  1.
        994    1    1    2    0    0 -0.15254190954E+02  0.51383848226E+01  0.66761810516E+01  0.17208458599E+03  0.17120000000E+03 0.  0.
        998    1    1    2    0    0  0.48649249806E+01 -0.17935907010E+01  0.14858366637E+04  0.14858793611E+04  0.10000000000E+02 0.  1.
</event>
<event>
 5    1  0.1360042E-008  0.3752632E+03  0.7957747E-01  0.3472046E+00
         13   -1    0    0    0    0  0.00000000000E+00  0.00000000000E+00  0.14999999963E+04  0.15000000000E+04  0.10566000000E+00 0.  1.
        994   -1    0    0    0    0 -0.00000000000E+00 -0.00000000000E+00  0.11368683772E-12  0.17120000000E+03  0.17120000000E+03 0.  0.
         13    1    1    2    0    0  0.83309801787E+02 -0.90883826595E+02  0.51397064896E+03  0.52855106865E+03  0.10566000000E+00 0.  1.
        994    1    1    2    0    0 -0.16250059389E+03  0.73875249318E+02  0.12383699298E+03  0.27660266865E+03  0.17120000000E+03 0.  0.
        998    1    1    2    0    0  0.79190792102E+02  0.17008577277E+02  0.86219235434E+03  0.86604626270E+03  0.10000000000E+02 0.  1.
</event>
<event>
 5    1  0.1360042E-008  0.3814126E+03  0.7957747E-01  0.3445031E+00
         13   -1    0    0    0    0  0.00000000000E+00  0.00000000000E+00  0.14999999963E+04  0.15000000000E+04  0.10566000000E+00 0.  1.
        994   -1    0    0    0    0 -0.00000000000E+00 -0.00000000000E+00  0.11368683772E-12  0.17120000000E+03  0.17120000000E+03 0.  0.
         13    1    1    2    0    0 -0.11679355594E+01 -0.18754318829E+02  0.51867376540E+02  0.55166334492E+02  0.10566000000E+00 0.  1.
        994    1    1    2    0    0 -0.16317581671E+02  0.63978783203E+01  0.44445742646E+01  0.17215223077E+03  0.17120000000E+03 0.  0.
        998    1    1    2    0    0  0.17485517230E+02  0.12356440508E+02  0.14436880455E+04  0.14438814347E+04  0.10000000000E+02 0.  1.
</event>
<event>
 5    1  0.1360042E-008  0.3812429E+03  0.7957747E-01  0.3445765E+00
         13   -1    0    0    0    0  0.00000000000E+00  0.00000000000E+00  0.14999999963E+04  0.15000000000E+04  0.10566000000E+00 0.  1.
        994   -1    0    0    0    0 -0.00000000000E+00 -0.00000000000E+00  0.11368683772E-12  0.17120000000E+03  0.17120000000E+03 0.  0.
         13    1    1    2    0    0  0.99339718571E+01  0.17369960702E+02  0.55885354276E+02  0.59359778623E+02  0.10566000000E+00 0.  1.
        994    1    1    2    0    0 -0.38839795161E+01 -0.12539313487E+02  0.40809755381E+01  0.17175102341E+03  0.17120000000E+03 0.  0.
        998    1    1    2    0    0 -0.60499923410E+01 -0.48306472154E+01  0.14400336665E+04  0.14400891980E+04  0.10000000000E+02 0.  1.
</event>
<event>
 5    1  0.1360042E-008  0.3859035E+03  0.7957747E-01  0.3425849E+00
         13   -1    0    0    0    0  0.00000000000E+00  0.00000000000E+00  0.14999999963E+04  0.15000000000E+04  0.10566000000E+00 0. -1.
        994   -1    0    0    0    0 -0.00000000000E+00 -0.00000000000E+00  0.11368683772E-12  0.17120000000E+03  0.17120000000E+03 0.  0.
         13    1    1    2    0    0  0.78005154188E+01 -0.84116737787E+01  0.55499613906E+02  0.56672944200E+02  0.10566000000E+00 0. -1.
        994    1    1    2    0    0 -0.51375514766E+01  0.83490102490E+01  0.14974097205E+01  0.17148697514E+03  0.17120000000E+03 0.  0.
        998    1    1    2    0    0 -0.26629639422E+01  0.62663529733E-01  0.14430029727E+04  0.14430400807E+04  0.10000000000E+02 0. -1.
</event>
<event>
 5    1  0.1360042E-008  0.3694775E+03  0.7957747E-01  0.3498296E+00
         13   -1    0    0    0    0  0.00000000000E+00  0.00000000000E+00  0.14999999963E+04  0.15000000000E+04  0.10566000000E+00 0. -1.
        994   -1    0    0    0    0 -0.00000000000E+00 -0.00000000000E+00  0.11368683772E-12  0.17120000000E+03  0.17120000000E+03 0.  0.
         13    1    1    2    0    0  0.40610842579E+02  0.64549932798E+02  0.23511292311E+03  0.24717206990E+03  0.10566000000E+00 0. -1.
        994    1    1    2    0    0 -0.41441670370E+02 -0.56900233332E+02  0.28159906668E+02  0.18723639854E+03  0.17120000000E+03 0.  0.
        998    1    1    2    0    0  0.83082779128E+00 -0.76496994659E+01  0.12367271665E+04  0.12367915316E+04  0.10000000000E+02 0. -1.
</event>
<event>
 5    1  0.1360042E-008  0.3754934E+03  0.7957747E-01  0.3471019E+00
         13   -1    0    0    0    0  0.00000000000E+00  0.00000000000E+00  0.14999999963E+04  0.15000000000E+04  0.10566000000E+00 0.  1.
        994   -1    0    0    0    0 -0.00000000000E+00 -0.00000000000E+00  0.11368683772E-12  0.17120000000E+03  0.17120000000E+03 0.  0.
         13    1    1    2    0    0  0.31954402633E+02 -0.47615796428E+02  0.23632212405E+03  0.24317998560E+03  0.10566000000E+00 0.  1.
        994    1    1    2    0    0 -0.25184331685E+02  0.35742470487E+02  0.12941030427E+02  0.17716852155E+03  0.17120000000E+03 0.  0.
        998    1    1    2    0    0 -0.67700709474E+01  0.11873325942E+02  0.12507368418E+04  0.12508514929E+04  0.10000000000E+02 0.  1.
</event>
<event>
 5    1  0.1360042E-008  0.3801202E+03  0.7957747E-01  0.3450635E+00
         13   -1    0    0    0    0  0.00000000000E+00  0.00000000000E+00  0.14999999963E+04  0.15000000000E+04  0.10566000000E+00 0.  1.
        994   -1    0    0    0    0 -0.00000000000E+00 -0.00000000000E+00  0.11368683772E-12  0.17120000000E+03  0.17120000000E+03 0.  0.
         13    1    1    2    0    0 -0.65510189850E+01 -0.22384026162E+02  0.62704704381E+02  0.66901805600E+02  0.10566000000E+00 0.  1.
        994    1    1    2    0    0  0.21244207883E+02  0.19577692724E+02  0.68663849553E+01  0.17375612123E+03  0.17120000000E+03 0.  0.
        998    1    1    2    0    0 -0.14693188898E+02  0.28063334373E+01  0.14304289069E+04  0.14305420732E+04  0.10000000000E+02 0.  1.
</event>
<event>
 5    1  0.1360042E-008  0.3686001E+03  0.7957747E-01  0.3502350E+00
         13   -1    0    0    0    0  0.00000000000E+00  0.00000000000E+00  0.14999999963E+04  0.15000000000E+04  0.10566000000E+00 0. -1.
        994   -1    0    0    0    0 -0.00000000000E+00 -0.00000000000E+00  0.11368683772E-12  0.17120000000E+03  0.17120000000E+03 0.  0.
         13    1    1    2    0    0 -0.11478072518E+03 -0.11089303998E+02  0.40446452869E+03  0.42058192266E+03  0.10566000000E+00 0. -1.
        994    1    1    2    0    0  0.13348007467E+03  0.54641596107E+01  0.74843870241E+02  0.22969073183E+03  0.17120000000E+03 0.  0.
        998    1    1    2    0    0 -0.18699349490E+02  0.56251443871E+01  0.10206915973E+04  0.10209273455E+04  0.10000000000E+02 0. -1.
</event>
<event>
 5    1  0.1360042E-008  0.3750411E+03  0.7957747E-01  0.3473039E+00
         13   -1    0    0    0    0  0.00000000000E+00  0.00000000000E+00  0.14999999963E+04  0.15000000000E+04  0.10566000000E+00 0.  1.
        994   -1    0    0    0    0 -0.00000000000E+00 -0.00000000000E+00  0.11368683772E-12  0.17120000000E+03  0.17120000000E+03 0.  0.
         13    1    1    2    0    0 -0.18052098816E+00 -0.22517405052E+02  0.35300551293E+02  0.41871305255E+02  0.10566000000E+00 0.  1.
        994    1    1    2    0    0  0.24294855674E+01  0.16121560643E+02  0.75615456117E+01  0.17214071015E+03  0.17120000000E+03 0.  0.
        998    1    1    2    0    0 -0.22489645793E+01  0.63958444086E+01  0.14571378994E+04  0.14571879846E+04  0.10000000000E+02 0.  1.
</event>
<event>
 5    1  0.1360042E-008  0.3824553E+03  0.7957747E-01  0.3440537E+00
         13   -1    0    0    0    0  0.00000000000E+00  0.00000000000E+00  0.14999999963E+04  0.15000000000E+04  0.10566000000E+00 0.  1.
        994   -1    0    0    0    0 -0.00000000000E+00 -0.00000000000E+00  0.11368683772E-12  0.17120000000E+03  0.17120000000E+03 0.  0.
         13    1    1    2    0    0  0.12124101383E+02 -0.62496874982E+01  0.30010900483E+02  0.32965402166E+02  0.10566000000E+00 0.  1.
        994    1    1    2    0    0 -0.15679353826E+02  0.11384106853E+02  0.41447641872E+01  0.17234285333E+03  0.17120000000E+03 0.  0.
        998    1    1    2    0    0  0.35552524431E+01 -0.51344193551E+01  0.14658443316E+04  0.14658917445E+04  0.10000000000E+02 0.  1.
</event>
<event>
 5    1  0.1360042E-008  0.3813751E+03  0.7957747E-01  0.3445193E+00
         13   -1    0    0    0    0  0.00000000000E+00  0.00000000000E+00  0.14999999963E+04  0.15000000000E+04  0.10566000000E+00 0.  1.
        994   -1    0    0    0    0 -0.00000000000E+00 -0.00000000000E+00  0.11368683772E-12  0.17120000000E+03  0.17120000000E+03 0.  0.
         13    1    1    2    0    0  0.38720924438E+01 -0.34401587538E+02  0.20228173539E+03  0.20522274231E+03  0.10566000000E+00 0.  1.
        994    1    1    2    0    0  0.98126242828E+01  0.26574890429E+01  0.37846304805E+01  0.17154332768E+03  0.17120000000E+03 0.  0.
        998    1    1    2    0    0 -0.13684716727E+02  0.31744098495E+02  0.12939336304E+04  0.12944339300E+04  0.10000000000E+02 0.  1.
</event>
<event>
 5    1  0.1360042E-008  0.3825530E+03  0.7957747E-01  0.3440117E+00
         13   -1    0    0    0    0  0.00000000000E+00  0.00000000000E+00  0.14999999963E+04  0.15000000000E+04  0.10566000000E+00 0.  1.
        994   -1    0    0    0    0 -0.00000000000E+00 -0.00000000000E+00  0.11368683772E-12  0.17120000000E+03  0.17120000000E+03 0.  0.
         13    1    1    2    0    0  0.74217567377E+01  0.68315786365E+01  0.17218016215E+02  0.19955555271E+02  0.10566000000E+00 0.  1.
        994    1    1    2    0    0  0.11915087140E+01  0.31519379740E+01  0.28875622129E+01  0.17125750326E+03  0.17120000000E+03 0.  0.
        998    1    1    2    0    0 -0.86132654517E+01 -0.99835166105E+01  0.14798944179E+04  0.14799869415E+04  0.10000000000E+02 0.  1.
</event>
<event>
 5    1  0.1360042E-008  0.3739428E+03  0.7957747E-01  0.3477965E+00
         13   -1    0    0    0    0  0.00000000000E+00  0.00000000000E+00  0.14999999963E+04  0.15000000000E+04  0.10566000000E+00 0.  1.
        994   -1    0    0    0    0 -0.00000000000E+00 -0.00000000000E+00  0.11368683772E-12  0.17120000000E+03  0.17120000000E+03 0.  0.
         13    1    1    2    0    0 -0.53550815706E+02  0.50018340871E+02  0.33836292259E+03  0.34620658982E+03  0.10566000000E+00 0.  1.
        994    1    1    2    0    0  0.58664559152E+02 -0.16783104843E+02  0.20032032989E+02  0.18284946118E+03  0.17120000000E+03 0.  0.
        998    1    1    2    0    0 -0.51137434463E+01 -0.33235236029E+02  0.11416050407E+04  0.11421439490E+04  0.10000000000E+02 0.  1.
</event>
<event>
 5    1  0.1360042E-008  0.3703214E+03  0.7957747E-01  0.3494415E+00
         13   -1    0    0    0    0  0.00000000000E+00  0.00000000000E+00  0.14999999963E+04  0.15000000000E+04  0.10566000000E+00 0. -1.
        994   -1    0    0    0    0 -0.00000000000E+00 -0.00000000000E+00  0.11368683772E-12  0.17120000000E+03  0.17120000000E+03 0.  0.
         13    1    1    2    0    0 -0.11561321974E+02  0.21242074995E+02  0.30169057556E+02  0.38666175318E+02  0.10566000000E+00 0. -1.
        994    1    1    2    0    0 -0.19994917175E+02 -0.17876841859E+01  0.10494243773E+02  0.17269210080E+03  0.17120000000E+03 0.  0.
        998    1    1    2    0    0  0.31556239149E+02 -0.19454390809E+02  0.14593366949E+04  0.14598417239E+04  0.10000000000E+02 0. -1.
</event>
<event>
 5    1  0.1360042E-008  0.3763695E+03  0.7957747E-01  0.3467120E+00
         13   -1    0    0    0    0  0.00000000000E+00  0.00000000000E+00  0.14999999963E+04  0.15000000000E+04  0.10566000000E+00 0.  1.
        994   -1    0    0    0    0 -0.00000000000E+00 -0.00000000000E+00  0.11368683772E-12  0.17120000000E+03  0.17120000000E+03 0.  0.
         13    1    1    2    0    0  0.46093603995E+02 -0.93818819198E+02  0.46524986514E+03  0.47684802542E+03  0.10566000000E+00 0.  1.
        994    1    1    2    0    0 -0.16906580336E+02  0.28634748015E+02  0.18311621509E+02  0.17535830957E+03  0.17120000000E+03 0.  0.
        998    1    1    2    0    0 -0.29187023660E+02  0.65184071184E+02  0.10164385096E+04  0.10189936650E+04  0.10000000000E+02 0.  1.
</event>
<event>
 5    1  0.1360042E-008  0.3765656E+03  0.7957747E-01  0.3466250E+00
         13   -1    0    0    0    0  0.00000000000E+00  0.00000000000E+00  0.14999999963E+04  0.15000000000E+04  0.10566000000E+00 0.  1.
        994   -1    0    0    0    0 -0.00000000000E+00 -0.00000000000E+00  0.11368683772E-12  0.17120000000E+03  0.17120000000E+03 0.  0.
         13    1    1    2    0    0  0.62186290204E+01  0.10465006813E+03  0.43290832401E+03  0.44542107748E+03  0.10566000000E+00 0.  1.
        994    1    1    2    0    0 -0.24710223608E+02 -0.40695943693E+02  0.22609556340E+02  0.17912952582E+03  0.17120000000E+03 0.  0.
        998    1    1    2    0    0  0.18491594588E+02 -0.63954124432E+02  0.10444821159E+04  0.10466493967E+04  0.10000000000E+02 0.  1.
</event>
<event>
 5    1  0.1360042E-008  0.3698655E+03  0.7957747E-01  0.3496509E+00
         13   -1    0    0    0    0  0.00000000000E+00  0.00000000000E+00  0.14999999963E+04  0.15000000000E+04  0.10566000000E+00 0. -1.
        994   -1    0    0    0    0 -0.00000000000E+00 -0.00000000000E+00  0.11368683772E-12  0.17120000000E+03  0.17120000000E+03 0.  0.
         13    1    1    2    0    0  0.71242732759E+02 -0.27380468289E+02  0.38495541011E+03  0.39244859020E+03  0.10566000000E+00 0. -1.
        994    1    1    2    0    0 -0.25743306281E+02 -0.18882559117E+02  0.12873444797E+02  0.17462655708E+03  0.17120000000E+03 0.  0.
        998    1    1    2    0    0 -0.45499426478E+02  0.46263027406E+02  0.11021711414E+04  0.11041248527E+04  0.10000000000E+02 0. -1.
</event>
<event>
 5    1  0.1360042E-008  0.3857990E+03  0.7957747E-01  0.3426290E+00
         13   -1    0    0    0    0  0.00000000000E+00  0.00000000000E+00  0.14999999963E+04  0.15000000000E+04  0.10566000000E+00 0.  1.
        994   -1    0    0    0    0 -0.00000000000E+00 -0.00000000000E+00  0.11368683772E-12  0.17120000000E+03  0.17120000000E+03 0.  0.
         13    1    1    2    0    0  0.84730735878E+01 -0.10400019386E+02  0.68284545797E+02  0.69589824960E+02  0.10566000000E+00 0.  1.
        994    1    1    2    0    0 -0.12502422166E+02  0.14362023160E+02  0.24241618891E+01  0.17227273386E+03  0.17120000000E+03 0.  0.
        998    1    1    2    0    0  0.40293485782E+01 -0.39620037740E+01  0.14292912886E+04  0.14293374412E+04  0.10000000000E+02 0.  1.
</event>
<event>
 5    1  0.1360042E-008  0.3848276E+03  0.7957747E-01  0.3430403E+00
         13   -1    0    0    0    0  0.00000000000E+00  0.00000000000E+00  0.14999999963E+04  0.15000000000E+04  0.10566000000E+00 0.  1.
        994   -1    0    0    0    0 -0.00000000000E+00 -0.00000000000E+00  0.11368683772E-12  0.17120000000E+03  0.17120000000E+03 0.  0.
         13    1    1    2    0    0 -0.11685645476E+02  0.12245350649E+02  0.76162651414E+02  0.78020917433E+02  0.10566000000E+00 0.  1.
        994    1    1    2    0    0  0.15843608224E+02 -0.19237384326E+02  0.37621130411E+01  0.17304534195E+03  0.17120000000E+03 0.  0.
        998    1    1    2    0    0 -0.41579627487E+01  0.69920336778E+01  0.14200752318E+04  0.14201337406E+04  0.10000000000E+02 0.  1.
</event>
<event>
 5    1  0.1360042E-008  0.3712765E+03  0.7957747E-01  0.3490045E+00
         13   -1    0    0    0    0  0.00000000000E+00  0.00000000000E+00  0.14999999963E+04  0.15000000000E+04  0.10566000000E+00 0. -1.
        994   -1    0    0    0    0 -0.00000000000E+00 -0.00000000000E+00  0.11368683772E-12  0.17120000000E+03  0.17120000000E+03 0.  0.
         13    1    1    2    0    0  0.25111403780E+02  0.58104436998E+02  0.32560672841E+03  0.33170236801E+03  0.10566000000E+00 0. -1.
        994    1    1    2    0    0 -0.41144442663E+01  0.12190942571E+02  0.91734638638E+01  0.17192771787E+03  0.17120000000E+03 0.  0.
        998    1    1    2    0    0 -0.20996959513E+02 -0.70295379569E+02  0.11652198040E+04  0.11675699141E+04  0.10000000000E+02 0. -1.
</event>
<event>
 5    1  0.1360042E-008  0.3755183E+03  0.7957747E-01  0.3470908E+00
         13   -1    0    0    0    0  0.00000000000E+00  0.00000000000E+00  0.14999999963E+04  0.15000000000E+04  0.10566000000E+00 0.  1.
        994   -1    0    0    0    0 -0.00000000000E+00 -0.00000000000E+00  0.11368683772E-12  0.17120000000E+03  0.17120000000E+03 0.  0.
         13    1    1    2    0    0 -0.43062560128E+01 -0.31211315647E+02  0.71149736729E+02  0.77813792260E+02  0.10566000000E+00 0.  1.
        994    1    1    2    0    0  0.11840637879E+02  0.32964606098E+02  0.10587233064E+02  0.17506683142E+03  0.17120000000E+03 0.  0.
        998    1    1    2    0    0 -0.75343818660E+01 -0.17532904509E+01  0.14182630265E+04  0.14183193763E+04  0.10000000000E+02 0.  1.
</event>
<event>
 5    1  0.1360042E-008  0.3859456E+03  0.7957747E-01  0.3425672E+00
         13   -1    0    0    0    0  0.00000000000E+00  0.00000000000E+00  0.14999999963E+04  0.15000000000E+04  0.10566000000E+00 0.  1.
        994   -1    0    0    0    0 -0.00000000000E+00 -0.00000000000E+00  0.11368683772E-12  0.17120000000E+03  0.17120000000E+03 0.  0.
         13    1    1    2    0    0  0.10440486870E+02  0.23621591079E+01  0.51108925610E+02  0.52217975859E+02  0.10566000000E+00 0.  1.
        994    1    1    2    0    0 -0.26945735204E+01 -0.39734451699E+01  0.12369733794E+01  0.17127176970E+03  0.17120000000E+03 0.  0.
        998    1    1    2    0    0 -0.77459133499E+01  0.16112860619E+01  0.14476540973E+04  0.14477102544E+04  0.10000000000E+02 0.  1.
</event>
<event>
 5    1  0.1360042E-008  0.3783545E+03  0.7957747E-01  0.3458355E+00
         13   -1    0    0    0    0  0.00000000000E+00  0.00000000000E+00  0.14999999963E+04  0.15000000000E+04  0.10566000000E+00 0. -1.
        994   -1    0    0    0    0 -0.00000000000E+00 -0.00000000000E+00  0.11368683772E-12  0.17120000000E+03  0.17120000000E+03 0.  0.
         13    1    1    2    0    0  0.64191606645E+01 -0.80912180980E+01  0.84510154674E+01  0.13345570816E+02  0.10566000000E+00 0. -1.
        994    1    1    2    0    0 -0.44068072628E+01  0.92036534676E+01  0.53161865547E+01  0.17158621456E+03  0.17120000000E+03 0.  0.
        998    1    1    2    0    0 -0.20123534017E+01 -0.11124353696E+01  0.14862327943E+04  0.14862682146E+04  0.10000000000E+02 0. -1.
</event>
<event>
 5    1  0.1360042E-008  0.3840718E+03  0.7957747E-01  0.3433618E+00
         13   -1    0    0    0    0  0.00000000000E+00  0.00000000000E+00  0.14999999963E+04  0.15000000000E+04  0.10566000000E+00 0. -1.
        994   -1    0    0    0    0 -0.00000000000E+00 -0.00000000000E+00  0.11368683772E-12  0.17120000000E+03  0.17120000000E+03 0.  0.
         13    1    1    2    0    0 -0.72599208686E+00  0.11674861157E+02  0.31820747238E+02  0.33902810597E+02  0.10566000000E+00 0. -1.
        994    1    1    2    0    0  0.15626301145E+01 -0.10485960125E+02  0.24625173358E+01  0.17154562415E+03  0.17120000000E+03 0.  0.
        998    1    1    2    0    0 -0.83663802762E+00 -0.11889010321E+01  0.14657167317E+04  0.14657515653E+04  0.10000000000E+02 0.  0.
</event>
<event>
 5    1  0.1360042E-008  0.3797453E+03  0.7957747E-01  0.3452268E+00
         13   -1    0    0    0    0  0.00000000000E+00  0.00000000000E+00  0.14999999963E+04  0.15000000000E+04  0.10566000000E+00 0. -1.
        994   -1    0    0    0    0 -0.00000000000E+00 -0.00000000000E+00  0.11368683772E-12  0.17120000000E+03  0.17120000000E+03 0.  0.
         13    1    1    2    0    0 -0.92008512995E+01  0.15873086713E+02  0.37541749418E+02  0.41785220591E+02  0.10566000000E+00 0. -1.
        994    1    1    2    0    0  0.64370142155E+01 -0.13216037487E+02  0.49850837349E+01  0.17190226834E+03  0.17120000000E+03 0.  0.
        998    1    1    2    0    0  0.27638370840E+01 -0.26570492253E+01  0.14574731631E+04  0.14575125111E+04  0.10000000000E+02 0. -1.
</event>
<event>
 5    1  0.1360042E-008  0.3818631E+03  0.7957747E-01  0.3443086E+00
         13   -1    0    0    0    0  0.00000000000E+00  0.00000000000E+00  0.14999999963E+04  0.15000000000E+04  0.10566000000E+00 0. -1.
        994   -1    0    0    0    0 -0.00000000000E+00 -0.00000000000E+00  0.11368683772E-12  0.17120000000E+03  0.17120000000E+03 0.  0.
         13    1    1    2    0    0  0.79894971571E+01  0.32798327249E+02  0.20395462104E+03  0.20672943899E+03  0.10566000000E+00 0. -1.
        994    1    1    2    0    0  0.19188567740E+01 -0.39862005403E+01  0.32606548458E+01  0.17128818896E+03  0.17120000000E+03 0.  0.
        998    1    1    2    0    0 -0.99083539311E+01 -0.28812126708E+02  0.12927847204E+04  0.12931823721E+04  0.10000000000E+02 0. -1.
</event>
<event>
 5    1  0.1360042E-008  0.3834103E+03  0.7957747E-01  0.3436442E+00
         13   -1    0    0    0    0  0.00000000000E+00  0.00000000000E+00  0.14999999963E+04  0.15000000000E+04  0.10566000000E+00 0. -1.
        994   -1    0    0    0    0 -0.00000000000E+00 -0.00000000000E+00  0.11368683772E-12  0.17120000000E+03  0.17120000000E+03 0.  0.
         13    1    1    2    0    0 -0.59923818733E+02 -0.21203091447E+02  0.98851683181E+02  0.11752489766E+03  0.10566000000E+00 0. -1.
        994    1    1    2    0    0  0.56104177738E+02  0.27490845284E+02  0.32680487023E+02  0.18515096426E+03  0.17120000000E+03 0.  0.
        998    1    1    2    0    0  0.38196409952E+01 -0.62877538364E+01  0.13684678261E+04  0.13685241381E+04  0.10000000000E+02 0. -1.
</event>
<event>
 5    1  0.1360042E-008  0.3762301E+03  0.7957747E-01  0.3467740E+00
         13   -1    0    0    0    0  0.00000000000E+00  0.00000000000E+00  0.14999999963E+04  0.15000000000E+04  0.10566000000E+00 0. -1.
        994   -1    0    0    0    0 -0.00000000000E+00 -0.00000000000E+00  0.11368683772E-12  0.17120000000E+03  0.17120000000E+03 0.  0.
         13    1    1    2    0    0 -0.12846388534E+02 -0.23177791766E+02  0.60857937184E+02  0.66377250711E+02  0.10566000000E+00 0. -1.
        994    1    1    2    0    0 -0.57611536145E+01 -0.56037839523E+01  0.62671079639E+01  0.17150309014E+03  0.17120000000E+03 0.  0.
        998    1    1    2    0    0  0.18607542149E+02  0.28781575718E+02  0.14328749511E+04  0.14333196591E+04  0.10000000000E+02 0. -1.
</event>
<event>
 5    1  0.1360042E-008  0.3786012E+03  0.7957747E-01  0.3457272E+00
         13   -1    0    0    0    0  0.00000000000E+00  0.00000000000E+00  0.14999999963E+04  0.15000000000E+04  0.10566000000E+00 0. -1.
        994   -1    0    0    0    0 -0.00000000000E+00 -0.00000000000E+00  0.11368683772E-12  0.17120000000E+03  0.17120000000E+03 0.  0.
         13    1    1    2    0    0  0.17773671874E+02 -0.16985136075E+01  0.30263207000E+02  0.35137746404E+02  0.10566000000E+00 0. -1.
        994    1    1    2    0    0 -0.20819608158E+02 -0.78262699123E+01  0.65041278604E+01  0.17276125221E+03  0.17120000000E+03 0.  0.
        998    1    1    2    0    0  0.30459362846E+01  0.95247835198E+01  0.14632326614E+04  0.14633010014E+04  0.10000000000E+02 0. -1.
</event>
<event>
 5    1  0.1360042E-008  0.3862507E+03  0.7957747E-01  0.3424385E+00
         13   -1    0    0    0    0  0.00000000000E+00  0.00000000000E+00  0.14999999963E+04  0.15000000000E+04  0.10566000000E+00 0.  1.
        994   -1    0    0    0    0 -0.00000000000E+00 -0.00000000000E+00  0.11368683772E-12  0.17120000000E+03  0.17120000000E+03 0.  0.
         13    1    1    2    0    0  0.39620789142E+01  0.97396457247E+01  0.59248279793E+02  0.60174152180E+02  0.10566000000E+00 0.  1.
        994    1    1    2    0    0  0.59983041882E+01 -0.12532285990E+01  0.11334493848E+01  0.17131338226E+03  0.17120000000E+03 0.  0.
        998    1    1    2    0    0 -0.99603831024E+01 -0.84864171257E+01  0.14396182671E+04  0.14397124656E+04  0.10000000000E+02 0.  1.
</event>
<event>
 5    1  0.1360042E-008  0.3854644E+03  0.7957747E-01  0.3427705E+00
         13   -1    0    0    0    0  0.00000000000E+00  0.00000000000E+00  0.14999999963E+04  0.15000000000E+04  0.10566000000E+00 0.  1.
        994   -1    0    0    0    0 -0.00000000000E+00 -0.00000000000E+00  0.11368683772E-12  0.17120000000E+03  0.17120000000E+03 0.  0.
         13    1    1    2    0    0 -0.69895392577E+01  0.15956892961E+02  0.98237813120E+02  0.99770512591E+02  0.10566000000E+00 0.  1.
        994    1    1    2    0    0  0.15043369708E+02 -0.19293186321E+02  0.33676162753E+01  0.17297199441E+03  0.17120000000E+03 0.  0.
        998    1    1    2    0    0 -0.80538304507E+01  0.33362933598E+01  0.13983945669E+04  0.13984574930E+04  0.10000000000E+02 0.  1.
</event>
<event>
 5    1  0.1360042E-008  0.3826675E+03  0.7957747E-01  0.3439625E+00
         13   -1    0    0    0    0  0.00000000000E+00  0.00000000000E+00  0.14999999963E+04  0.15000000000E+04  0.10566000000E+00 0.  1.
        994   -1    0    0    0    0 -0.00000000000E+00 -0.00000000000E+00  0.11368683772E-12  0.17120000000E+03  0.17120000000E+03 0.  0.
         13    1    1    2    0    0 -0.10720695375E+02  0.71538388037E+01  0.28537017549E+02  0.31312669218E+02  0.10566000000E+00 0.  1.
        994    1    1    2    0    0  0.97976813031E+01 -0.51258651140E+01  0.31979174406E+01  0.17158652549E+03  0.17120000000E+03 0.  0.
        998    1    1    2    0    0  0.92301407190E+00 -0.20279736897E+01  0.14682650613E+04  0.14683008053E+04  0.10000000000E+02 0.  1.
</event>
<event>
 5    1  0.1360042E-008  0.3815394E+03  0.7957747E-01  0.3444483E+00
         13   -1    0    0    0    0  0.00000000000E+00  0.00000000000E+00  0.14999999963E+04  0.15000000000E+04  0.10566000000E+00 0. -1.
        994   -1    0    0    0    0 -0.00000000000E+00 -0.00000000000E+00  0.11368683772E-12  0.17120000000E+03  0.17120000000E+03 0.  0.
         13    1    1    2    0    0 -0.23936698663E+02  0.71363791275E+00  0.82708557368E+02  0.86105699276E+02  0.10566000000E+00 0. -1.
        994    1    1    2    0    0  0.19160453079E+02  0.13965436492E+02  0.52300459594E+01  0.17291312778E+03  0.17120000000E+03 0.  0.
        998    1    1    2    0    0  0.47762455847E+01 -0.14679074404E+02  0.14120613930E+04  0.14121811729E+04  0.10000000000E+02 0. -1.
</event>
<event>
 5    1  0.1360042E-008  0.3862571E+03  0.7957747E-01  0.3424358E+00
         13   -1    0    0    0    0  0.00000000000E+00  0.00000000000E+00  0.14999999963E+04  0.15000000000E+04  0.10566000000E+00 0. -1.
        994   -1    0    0    0    0 -0.00000000000E+00 -0.00000000000E+00  0.11368683772E-12  0.17120000000E+03  0.17120000000E+03 0.  0.
         13    1    1    2    0    0 -0.10291636009E+02  0.54651038547E+01  0.68256206494E+02  0.69243815759E+02  0.10566000000E+00 0. -1.
        994    1    1    2    0    0  0.46763156230E+01 -0.87510385620E+01  0.13297956770E+01  0.17149243995E+03  0.17120000000E+03 0.  0.
        998    1    1    2    0    0  0.56153203858E+01  0.32859347073E+01  0.14304139941E+04  0.14304637443E+04  0.10000000000E+02 0. -1.
</event>
<event>
 5    1  0.1786473E-008  0.3816305E+03  0.7957747E-01  0.3444089E+00
         13   -1    0    0    0    0  0.00000000000E+00  0.00000000000E+00  0.14999999963E+04  0.15000000000E+04  0.10566000000E+00 0.  1.
        994   -1    0    0    0    0 -0.00000000000E+00 -0.00000000000E+00  0.11368683772E-12  0.17120000000E+03  0.17120000000E+03 0.  0.
         13    1    1    2    0    0 -0.10786466852E+02 -0.35170179716E+01  0.17868954808E+02  0.21166671739E+02  0.10566000000E+00 0.  1.
        994    1    1    2    0    0  0.11743353138E+02  0.36657619113E+01  0.38157004416E+01  0.17168384817E+03  0.17120000000E+03 0.  0.
        998    1    1    2    0    0 -0.95688628662E+00 -0.14874393965E+00  0.14783153410E+04  0.14783494801E+04  0.10000000000E+02 0.  1.
</event>
<event>
 5    1  0.1360042E-008  0.3753334E+03  0.7957747E-01  0.3471733E+00
         13   -1    0    0    0    0  0.00000000000E+00  0.00000000000E+00  0.14999999963E+04  0.15000000000E+04  0.10566000000E+00 0. -1.
        994   -1    0    0    0    0 -0.00000000000E+00 -0.00000000000E+00  0.11368683772E-12  0.17120000000E+03  0.17120000000E+03 0.  0.
         13    1    1    2    0    0 -0.23970897178E+02  0.17290770068E+02  0.68479271996E+02  0.74585497908E+02  0.10566000000E+00 0. -1.
        994    1    1    2    0    0  0.68225670447E+01  0.41807514948E+01  0.67250470864E+01  0.17151878137E+03  0.17120000000E+03 0.  0.
        998    1    1    2    0    0  0.17148330133E+02 -0.21471521562E+02  0.14247956772E+04  0.14250957207E+04  0.10000000000E+02 0. -1.
</event>
<event>
 5    1  0.1360042E-008  0.3825789E+03  0.7957747E-01  0.3440006E+00
         13   -1    0    0    0    0  0.00000000000E+00  0.00000000000E+00  0.14999999963E+04  0.15000000000E+04  0.10566000000E+00 0. -1.
        994   -1    0    0    0    0 -0.00000000000E+00 -0.00000000000E+00  0.11368683772E-12  0.17120000000E+03  0.17120000000E+03 0.  0.
         13    1    1    2    0    0  0.27612414728E+02  0.28799672019E+01  0.12353293897E+03  0.12661412967E+03  0.10566000000E+00 0. -1.
        994    1    1    2    0    0 -0.30900045579E+02  0.61033013543E+01  0.61323128982E+01  0.17418125148E+03  0.17120000000E+03 0.  0.
        998    1    1    2    0    0  0.32876308509E+01 -0.89832685562E+01  0.13703347444E+04  0.13704046189E+04  0.10000000000E+02 0. -1.
</event>
<event>
 5    1  0.1360042E-008  0.3752411E+03  0.7957747E-01  0.3472145E+00
         13   -1    0    0    0    0  0.00000000000E+00  0.00000000000E+00  0.14999999963E+04  0.15000000000E+04  0.10566000000E+00 0. -1.
        994   -1    0    0    0    0 -0.00000000000E+00 -0.00000000000E+00  0.11368683772E-12  0.17120000000E+03  0.17120000000E+03 0.  0.
         13    1    1    2    0    0  0.23066789239E+02 -0.51943248166E+01  0.14184452890E+02  0.27572951309E+02  0.10566000000E+00 0. -1.
        994    1    1    2    0    0 -0.25184729381E+02  0.39284510361E+01  0.16054660907E+02  0.17383007639E+03  0.17120000000E+03 0.  0.
        998    1    1    2    0    0  0.21179401419E+01  0.12658737805E+01  0.14697608825E+04  0.14697969723E+04  0.10000000000E+02 0. -1.
</event>
<event>
 5    1  0.1360042E-008  0.3749333E+03  0.7957747E-01  0.3473521E+00
         13   -1    0    0    0    0  0.00000000000E+00  0.00000000000E+00  0.14999999963E+04  0.15000000000E+04  0.10566000000E+00 0.  1.
        994   -1    0    0    0    0 -0.00000000000E+00 -0.00000000000E+00  0.11368683772E-12  0.17120000000E+03  0.17120000000E+03 0.  0.
         13    1    1    2    0    0 -0.42611309187E+02  0.32813939555E+02  0.22045361701E+03  0.22691911933E+03  0.10566000000E+00 0.  1.
        994    1    1    2    0    0  0.33696668399E+02  0.67666835265E+00  0.10584809919E+02  0.17480675485E+03  0.17120000000E+03 0.  0.
        998    1    1    2    0    0  0.89146407875E+01 -0.33490607908E+02  0.12689615693E+04  0.12694741258E+04  0.10000000000E+02 0.  1.
</event>
<event>
 5    1  0.1360042E-008  0.3842930E+03  0.7957747E-01  0.3432676E+00
         13   -1    0    0    0    0  0.00000000000E+00  0.00000000000E+00  0.14999999963E+04  0.15000000000E+04  0.10566000000E+00 0.  1.
        994   -1    0    0    0    0 -0.00000000000E+00 -0.00000000000E+00  0.11368683772E-12  0.17120000000E+03  0.17120000000E+03 0.  0.
         13    1    1    2    0    0  0.18483890389E+01  0.15389202435E+02  0.59105724496E+02  0.61104352757E+02  0.10566000000E+00 0.  1.
        994    1    1    2    0    0  0.22151596963E+00 -0.13927981937E+02  0.26213857493E+01  0.17178576604E+03  0.17120000000E+03 0.  0.
        998    1    1    2    0    0 -0.20699050085E+01 -0.14612204979E+01  0.14382728860E+04  0.14383098812E+04  0.10000000000E+02 0.  0.
</event>
<event>
 5    1  0.1360042E-008  0.3804087E+03  0.7957747E-01  0.3449381E+00
         13   -1    0    0    0    0  0.00000000000E+00  0.00000000000E+00  0.14999999963E+04  0.15000000000E+04  0.10566000000E+00 0.  1.
        994   -1    0    0    0    0 -0.00000000000E+00 -0.00000000000E+00  0.11368683772E-12  0.17120000000E+03  0.17120000000E+03 0.  0.
         13    1    1    2    0    0 -0.73019586970E+02  0.22447541892E+02  0.44403457366E+03  0.45055794964E+03  0.10566000000E+00 0.  1.
        994    1    1    2    0    0  0.87100200014E+02 -0.20586661159E+02  0.31148721501E+02  0.19567814981E+03  0.17120000000E+03 0.  0.
        998    1    1    2    0    0 -0.14080613044E+02 -0.18608807324E+01  0.10248167011E+04  0.10249639006E+04  0.10000000000E+02 0.  1.
</event>
<event>
 5    1  0.1360042E-008  0.3772722E+03  0.7957747E-01  0.3463123E+00
         13   -1    0    0    0    0  0.00000000000E+00  0.00000000000E+00  0.14999999963E+04  0.15000000000E+04  0.10566000000E+00 0.  1.
        994   -1    0    0    0    0 -0.00000000000E+00 -0.00000000000E+00  0.11368683772E-12  0.17120000000E+03  0.17120000000E+03 0.  0.
         13    1    1    2    0    0  0.16012769834E+02 -0.24683101726E+02  0.85708343623E+02  0.90617854969E+02  0.10566000000E+00 0.  1.
        994    1    1    2    0    0  0.84651292841E+01 -0.44717105528E+01  0.58257631031E+01  0.17156641316E+03  0.17120000000E+03 0.  0.
        998    1    1    2    0    0 -0.24477899118E+02  0.29154812279E+02  0.14084658896E+04  0.14090157319E+04  0.10000000000E+02 0.  1.
</event>
<event>
 5    1  0.1710925E-008  0.3862011E+03  0.7957747E-01  0.3424594E+00
         13   -1    0    0    0    0  0.00000000000E+00  0.00000000000E+00  0.14999999963E+04  0.15000000000E+04  0.10566000000E+00 0. -1.
        994   -1    0    0    0    0 -0.00000000000E+00 -0.00000000000E+00  0.11368683772E-12  0.17120000000E+03  0.17120000000E+03 0.  0.
         13    1    1    2    0    0  0.55533006410E+01  0.94927722572E+01  0.58442867528E+02  0.59468746431E+02  0.10566000000E+00 0. -1.
        994    1    1    2    0    0 -0.13825560065E+01 -0.10103780161E+02  0.13757420882E+01  0.17150898082E+03  0.17120000000E+03 0.  0.
        998    1    1    2    0    0 -0.41707446345E+01  0.61100790405E+00  0.14401813867E+04  0.14402222728E+04  0.10000000000E+02 0. -1.
</event>
<event>
 5    1  0.1360042E-008  0.3801864E+03  0.7957747E-01  0.3450347E+00
         13   -1    0    0    0    0  0.00000000000E+00  0.00000000000E+00  0.14999999963E+04  0.15000000000E+04  0.10566000000E+00 0.  1.
        994   -1    0    0    0    0 -0.00000000000E+00 -0.00000000000E+00  0.11368683772E-12  0.17120000000E+03  0.17120000000E+03 0.  0.
         13    1    1    2    0    0  0.26207073663E+01 -0.28109885735E+02  0.10213037440E+03  0.10596064516E+03  0.10566000000E+00 0.  1.
        994    1    1    2    0    0  0.12602744730E+02  0.93435468278E+01  0.48618014723E+01  0.17198606966E+03  0.17120000000E+03 0.  0.
        998    1    1    2    0    0 -0.15223452096E+02  0.18766338908E+02  0.13930078204E+04  0.13932532852E+04  0.10000000000E+02 0.  1.
</event>
<event>
 5    1  0.1360042E-008  0.3749807E+03  0.7957747E-01  0.3473309E+00
         13   -1    0    0    0    0  0.00000000000E+00  0.00000000000E+00  0.14999999963E+04  0.15000000000E+04  0.10566000000E+00 0.  1.
        994   -1    0    0    0    0 -0.00000000000E+00 -0.00000000000E+00  0.11368683772E-12  0.17120000000E+03  0.17120000000E+03 0.  0.
         13    1    1    2    0    0  0.40380580301E+00 -0.43336728336E+02  0.17564428708E+03  0.18091202788E+03  0.10566000000E+00 0.  1.
        994    1    1    2    0    0 -0.91914101425E+01 -0.16153583579E+02  0.78637498474E+01  0.17238532085E+03  0.17120000000E+03 0.  0.
        998    1    1    2    0    0  0.87876043395E+01  0.59490311914E+02  0.13164919593E+04  0.13179026513E+04  0.10000000000E+02 0.  1.
</event>
<event>
 5    1  0.1360042E-008  0.3795696E+03  0.7957747E-01  0.3453035E+00
         13   -1    0    0    0    0  0.00000000000E+00  0.00000000000E+00  0.14999999963E+04  0.15000000000E+04  0.10566000000E+00 0.  1.
        994   -1    0    0    0    0 -0.00000000000E+00 -0.00000000000E+00  0.11368683772E-12  0.17120000000E+03  0.17120000000E+03 0.  0.
         13    1    1    2    0    0  0.92980580483E+01  0.65289808886E+01  0.12954168559E+02  0.17230876995E+02  0.10566000000E+00 0.  1.
        994    1    1    2    0    0 -0.37379544291E+01 -0.79014772676E+01  0.46063753601E+01  0.17148488079E+03  0.17120000000E+03 0.  0.
        998    1    1    2    0    0 -0.55601036192E+01  0.13724963790E+01  0.14824394524E+04  0.14824842422E+04  0.10000000000E+02 0.  1.
</event>
<event>
 5    1  0.2255763E-008  0.3863522E+03  0.7957747E-01  0.3423957E+00
         13   -1    0    0    0    0  0.00000000000E+00  0.00000000000E+00  0.14999999963E+04  0.15000000000E+04  0.10566000000E+00 0. -1.
        994   -1    0    0    0    0 -0.00000000000E+00 -0.00000000000E+00  0.11368683772E-12  0.17120000000E+03  0.17120000000E+03 0.  0.
         13    1    1    2    0    0  0.22602203682E+01  0.10627502551E+02  0.64487089196E+02  0.65396087372E+02  0.10566000000E+00 0. -1.
        994    1    1    2    0    0 -0.35753034035E+01 -0.29818731952E+01  0.10312213483E+01  0.17126639419E+03  0.17120000000E+03 0.  0.
        998    1    1    2    0    0  0.13150830353E+01 -0.76456293561E+01  0.14344816857E+04  0.14345375184E+04  0.10000000000E+02 0. -1.
</event>
<event>
 5    1  0.1360042E-008  0.3748310E+03  0.7957747E-01  0.3473979E+00
         13   -1    0    0    0    0  0.00000000000E+00  0.00000000000E+00  0.14999999963E+04  0.15000000000E+04  0.10566000000E+00 0. -1.
        994   -1    0    0    0    0 -0.00000000000E+00 -0.00000000000E+00  0.11368683772E-12  0.17120000000E+03  0.17120000000E+03 0.  0.
         13    1    1    2    0    0 -0.62895964200E+02 -0.31385394827E+02  0.15978207064E+03  0.17456020905E+03  0.10566000000E+00 0. -1.
        994    1    1    2    0    0  0.62881176770E+02  0.31863735096E+02  0.31406614108E+02  0.18779018988E+03  0.17120000000E+03 0.  0.
        998    1    1    2    0    0  0.14787429565E-01 -0.47834026813E+00  0.13088113115E+04  0.13088496011E+04  0.10000000000E+02 0.  0.
</event>
<event>
 5    1  0.1360042E-008  0.3830033E+03  0.7957747E-01  0.3438185E+00
         13   -1    0    0    0    0  0.00000000000E+00  0.00000000000E+00  0.14999999963E+04  0.15000000000E+04  0.10566000000E+00 0.  1.
        994   -1    0    0    0    0 -0.00000000000E+00 -0.00000000000E+00  0.11368683772E-12  0.17120000000E+03  0.17120000000E+03 0.  0.
         13    1    1    2    0    0 -0.12406730006E+01 -0.11837782074E+02  0.27405947778E+02  0.29879248510E+02  0.10566000000E+00 0.  1.
        994    1    1    2    0    0 -0.35830233198E+00 -0.60546084583E+01  0.27464977729E+01  0.17132941929E+03  0.17120000000E+03 0.  0.
        998    1    1    2    0    0  0.15989753326E+01  0.17892390532E+02  0.14698475507E+04  0.14699913322E+04  0.10000000000E+02 0.  1.
</event>
<event>
 5    1  0.1360042E-008  0.3758920E+03  0.7957747E-01  0.3469243E+00
         13   -1    0    0    0    0  0.00000000000E+00  0.00000000000E+00  0.14999999963E+04  0.15000000000E+04  0.10566000000E+00 0. -1.
        994   -1    0    0    0    0 -0.00000000000E+00 -0.00000000000E+00  0.11368683772E-12  0.17120000000E+03  0.17120000000E+03 0.  0.
         13    1    1    2    0    0  0.38899540171E+02 -0.35158013098E+02  0.18460091830E+03  0.19190302320E+03  0.10566000000E+00 0. -1.
        994    1    1    2    0    0 -0.45918030084E+02  0.38452736442E+02  0.18476467083E+02  0.18231263879E+03  0.17120000000E+03 0.  0.
        998    1    1    2    0    0  0.70184899130E+01 -0.32947233444E+01  0.12969226109E+04  0.12969843380E+04  0.10000000000E+02 0. -1.
</event>
