<event>
 5    1  0.9130022E-009  0.3848587E+03  0.7957747E-01  0.3430272E+00
         13   -1    0    0    0    0  0.00000000000E+00  0.00000000000E+00  0.14999999963E+04  0.15000000000E+04  0.10566000000E+00 0. -1.
        994   -1    0    0    0    0 -0.00000000000E+00 -0.00000000000E+00  0.11368683772E-12  0.17120000000E+03  0.17120000000E+03 0.  0.
         13    1    1    2    0    0  0.10851110905E+02  0.21482492617E+01  0.35247780017E+02  0.36942911944E+02  0.10566000000E+00 0. -1.
        994    1    1    2    0    0 -0.10454220589E+02 -0.15408728262E+01  0.20677690903E+01  0.17153827761E+03  0.17120000000E+03 0.  0.
        998    1    1    2    0    0 -0.39689031592E+00 -0.60737643550E+00  0.14626844472E+04  0.14627188104E+04  0.10000000000E+02 0. -1.
</event>
<event>
 5    1  0.9130022E-009  0.3845753E+03  0.7957747E-01  0.3431475E+00
         13   -1    0    0    0    0  0.00000000000E+00  0.00000000000E+00  0.14999999963E+04  0.15000000000E+04  0.10566000000E+00 0. -1.
        994   -1    0    0    0    0 -0.00000000000E+00 -0.00000000000E+00  0.11368683772E-12  0.17120000000E+03  0.17120000000E+03 0.  0.
         13    1    1    2    0    0  0.15239919066E+02 -0.48539717483E+01  0.70171446169E+02  0.71971238674E+02  0.10566000000E+00 0. -1.
        994    1    1    2    0    0 -0.67241100969E+01  0.66311743124E+01  0.21348783642E+01  0.17147356599E+03  0.17120000000E+03 0.  0.
        998    1    1    2    0    0 -0.85158089689E+01 -0.17772025641E+01  0.14276936717E+04  0.14277551953E+04  0.10000000000E+02 0. -1.
</event>
<event>
 5    1  0.9130022E-009  0.3947864E+03  0.7957747E-01  0.3389199E+00
         13   -1    0    0    0    0  0.00000000000E+00  0.00000000000E+00  0.14999999963E+04  0.15000000000E+04  0.10566000000E+00 0. -1.
        994   -1    0    0    0    0 -0.00000000000E+00 -0.00000000000E+00  0.11368683772E-12  0.17120000000E+03  0.17120000000E+03 0.  0.
         13    1    1    2    0    0 -0.54323953855E+02  0.72666482200E+02  0.15466776996E+03  0.17931436035E+03  0.10566000000E+00 0. -1.
        994    1    1    2    0    0  0.41856165619E+02 -0.55629183944E+02  0.43525810966E+02  0.18986964193E+03  0.17120000000E+03 0.  0.
        998    1    1    2    0    0  0.12467788236E+02 -0.17037298256E+02  0.13018064154E+04  0.13020159977E+04  0.10000000000E+02 0. -1.
</event>
<event>
 5    1  0.9130022E-009  0.3784897E+03  0.7957747E-01  0.3457761E+00
         13   -1    0    0    0    0  0.00000000000E+00  0.00000000000E+00  0.14999999963E+04  0.15000000000E+04  0.10566000000E+00 0.  1.
        994   -1    0    0    0    0 -0.00000000000E+00 -0.00000000000E+00  0.11368683772E-12  0.17120000000E+03  0.17120000000E+03 0.  0.
         13    1    1    2    0    0  0.46593420922E+02  0.58913904750E+02  0.38894246626E+03  0.39612882787E+03  0.10566000000E+00 0.  1.
        994    1    1    2    0    0 -0.50465736712E+02 -0.66557143844E+02  0.28706390023E+02  0.19263992527E+03  0.17120000000E+03 0.  0.
        998    1    1    2    0    0  0.38723157901E+01  0.76432390938E+01  0.10823511400E+04  0.10824312469E+04  0.10000000000E+02 0.  1.
</event>
<event>
 5    1  0.9130022E-009  0.3785075E+03  0.7957747E-01  0.3457683E+00
         13   -1    0    0    0    0  0.00000000000E+00  0.00000000000E+00  0.14999999963E+04  0.15000000000E+04  0.10566000000E+00 0. -1.
        994   -1    0    0    0    0 -0.00000000000E+00 -0.00000000000E+00  0.11368683772E-12  0.17120000000E+03  0.17120000000E+03 0.  0.
         13    1    1    2    0    0  0.15312179710E+02 -0.15310624818E+02  0.44766047480E+02  0.49728143448E+02  0.10566000000E+00 0. -1.
        994    1    1    2    0    0 -0.21646244452E+02  0.10530097391E+02  0.68375253310E+01  0.17301917409E+03  0.17120000000E+03 0.  0.
        998    1    1    2    0    0  0.63340647427E+01  0.47805274275E+01  0.14483964235E+04  0.14484526825E+04  0.10000000000E+02 0. -1.
</event>
<event>
 5    1  0.9130022E-009  0.3825029E+03  0.7957747E-01  0.3440332E+00
         13   -1    0    0    0    0  0.00000000000E+00  0.00000000000E+00  0.14999999963E+04  0.15000000000E+04  0.10566000000E+00 0. -1.
        994   -1    0    0    0    0 -0.00000000000E+00 -0.00000000000E+00  0.11368683772E-12  0.17120000000E+03  0.17120000000E+03 0.  0.
         13    1    1    2    0    0  0.19219664259E+02 -0.65948852652E+00  0.71093111403E+02  0.73648299861E+02  0.10566000000E+00 0. -1.
        994    1    1    2    0    0  0.92042751614E+01 -0.10244003627E+02  0.35040768614E+01  0.17178875646E+03  0.17120000000E+03 0.  0.
        998    1    1    2    0    0 -0.28423939421E+02  0.10903492154E+02  0.14254028080E+04  0.14257629437E+04  0.10000000000E+02 0. -1.
</event>
<event>
 5    1  0.9130022E-009  0.3774878E+03  0.7957747E-01  0.3462171E+00
         13   -1    0    0    0    0  0.00000000000E+00  0.00000000000E+00  0.14999999963E+04  0.15000000000E+04  0.10566000000E+00 0. -1.
        994   -1    0    0    0    0 -0.00000000000E+00 -0.00000000000E+00  0.11368683772E-12  0.17120000000E+03  0.17120000000E+03 0.  0.
         13    1    1    2    0    0 -0.22942519342E+01  0.15710765057E+02  0.20681449559E+02  0.26073458737E+02  0.10566000000E+00 0. -1.
        994    1    1    2    0    0  0.39424894628E+01 -0.17079797551E+02  0.64431212827E+01  0.17221561056E+03  0.17120000000E+03 0.  0.
        998    1    1    2    0    0 -0.16482375287E+01  0.13690324938E+01  0.14728754254E+04  0.14729109307E+04  0.10000000000E+02 0. -1.
</event>
<event>
 5    1  0.9130022E-009  0.3782205E+03  0.7957747E-01  0.3458944E+00
         13   -1    0    0    0    0  0.00000000000E+00  0.00000000000E+00  0.14999999963E+04  0.15000000000E+04  0.10566000000E+00 0.  1.
        994   -1    0    0    0    0 -0.00000000000E+00 -0.00000000000E+00  0.11368683772E-12  0.17120000000E+03  0.17120000000E+03 0.  0.
         13    1    1    2    0    0 -0.36291650328E+02  0.31546258000E+02  0.22913882843E+03  0.23413001545E+03  0.10566000000E+00 0.  1.
        994    1    1    2    0    0  0.17942267353E+02 -0.20329092028E+02  0.75103136752E+01  0.17349651798E+03  0.17120000000E+03 0.  0.
        998    1    1    2    0    0  0.18349382975E+02 -0.11217165972E+02  0.12633508542E+04  0.12635734666E+04  0.10000000000E+02 0.  1.
</event>
<event>
 5    1  0.9130022E-009  0.3724087E+03  0.7957747E-01  0.3484894E+00
         13   -1    0    0    0    0  0.00000000000E+00  0.00000000000E+00  0.14999999963E+04  0.15000000000E+04  0.10566000000E+00 0. -1.
        994   -1    0    0    0    0 -0.00000000000E+00 -0.00000000000E+00  0.11368683772E-12  0.17120000000E+03  0.17120000000E+03 0.  0.
         13    1    1    2    0    0 -0.63625672853E+02 -0.14953442647E+02  0.34976303139E+03  0.35581739837E+03  0.10566000000E+00 0. -1.
        994    1    1    2    0    0 -0.76944067150E-01  0.11917968576E+02  0.85027196489E+01  0.17182485308E+03  0.17120000000E+03 0.  0.
        998    1    1    2    0    0  0.63702616921E+02  0.30354740707E+01  0.11417342452E+04  0.11435577485E+04  0.10000000000E+02 0. -1.
</event>
<event>
 5    1  0.9130022E-009  0.3849449E+03  0.7957747E-01  0.3429906E+00
         13   -1    0    0    0    0  0.00000000000E+00  0.00000000000E+00  0.14999999963E+04  0.15000000000E+04  0.10566000000E+00 0. -1.
        994   -1    0    0    0    0 -0.00000000000E+00 -0.00000000000E+00  0.11368683772E-12  0.17120000000E+03  0.17120000000E+03 0.  0.
         13    1    1    2    0    0 -0.61518884879E+01 -0.12144074741E+02  0.55486195838E+02  0.57131894559E+02  0.10566000000E+00 0. -1.
        994    1    1    2    0    0  0.41839086340E+01  0.92993080934E+01  0.19995774524E+01  0.17151507378E+03  0.17120000000E+03 0.  0.
        998    1    1    2    0    0  0.19679798539E+01  0.28447666477E+01  0.14425142230E+04  0.14425530317E+04  0.10000000000E+02 0. -1.
</event>
<event>
 5    1  0.9130022E-009  0.3825544E+03  0.7957747E-01  0.3440111E+00
         13   -1    0    0    0    0  0.00000000000E+00  0.00000000000E+00  0.14999999963E+04  0.15000000000E+04  0.10566000000E+00 0. -1.
        994   -1    0    0    0    0 -0.00000000000E+00 -0.00000000000E+00  0.11368683772E-12  0.17120000000E+03  0.17120000000E+03 0.  0.
         13    1    1    2    0    0 -0.17928672347E+02  0.21976604799E+02  0.13893710808E+03  0.14180246689E+03  0.10566000000E+00 0. -1.
        994    1    1    2    0    0  0.22961496351E+02 -0.52834900108E+01  0.46916754850E+01  0.17287740570E+03  0.17120000000E+03 0.  0.
        998    1    1    2    0    0 -0.50328240035E+01 -0.16693114789E+02  0.13563712127E+04  0.13565201274E+04  0.10000000000E+02 0. -1.
</event>
<event>
 5    1  0.9130022E-009  0.3847864E+03  0.7957747E-01  0.3430578E+00
         13   -1    0    0    0    0  0.00000000000E+00  0.00000000000E+00  0.14999999963E+04  0.15000000000E+04  0.10566000000E+00 0.  1.
        994   -1    0    0    0    0 -0.00000000000E+00 -0.00000000000E+00  0.11368683772E-12  0.17120000000E+03  0.17120000000E+03 0.  0.
         13    1    1    2    0    0  0.64262323956E+01  0.90551255887E+01  0.34225865151E+02  0.35982117387E+02  0.10566000000E+00 0.  1.
        994    1    1    2    0    0 -0.24657480891E+01 -0.15414631875E+02  0.25385810260E+01  0.17192898296E+03  0.17120000000E+03 0.  0.
        998    1    1    2    0    0 -0.39604843065E+01  0.63595062863E+01  0.14632355501E+04  0.14632888996E+04  0.10000000000E+02 0.  1.
</event>
<event>
 5    1  0.9130022E-009  0.3734025E+03  0.7957747E-01  0.3480398E+00
         13   -1    0    0    0    0  0.00000000000E+00  0.00000000000E+00  0.14999999963E+04  0.15000000000E+04  0.10566000000E+00 0.  1.
        994   -1    0    0    0    0 -0.00000000000E+00 -0.00000000000E+00  0.11368683772E-12  0.17120000000E+03  0.17120000000E+03 0.  0.
         13    1    1    2    0    0 -0.58406894868E+02 -0.38070361337E+02  0.34573584311E+03  0.35269533900E+03  0.10566000000E+00 0.  1.
        994    1    1    2    0    0  0.44940575568E+02 -0.96146200357E+01  0.14754310266E+02  0.17787418565E+03  0.17120000000E+03 0.  0.
        998    1    1    2    0    0  0.13466319300E+02  0.47684981373E+02  0.11395098429E+04  0.11406304753E+04  0.10000000000E+02 0.  1.
</event>
<event>
 5    1  0.9130022E-009  0.4188040E+03  0.7957747E-01  0.3297847E+00
         13   -1    0    0    0    0  0.00000000000E+00  0.00000000000E+00  0.14999999963E+04  0.15000000000E+04  0.10566000000E+00 0.  1.
        994   -1    0    0    0    0 -0.00000000000E+00 -0.00000000000E+00  0.11368683772E-12  0.17120000000E+03  0.17120000000E+03 0.  0.
         13    1    1    2    0    0  0.15694340562E+02  0.84990702869E+00 -0.14113326401E+02  0.21124199719E+02  0.10566000000E+00 0.  1.
        994    1    1    2    0    0 -0.23893550029E+02 -0.71025341939E+01  0.42180598688E+02  0.17807299242E+03  0.17120000000E+03 0.  0.
        998    1    1    2    0    0  0.81992094676E+01  0.62526271652E+01  0.14719327240E+04  0.14720028079E+04  0.10000000000E+02 0.  1.
</event>
<event>
 5    1  0.9130022E-009  0.3785652E+03  0.7957747E-01  0.3457430E+00
         13   -1    0    0    0    0  0.00000000000E+00  0.00000000000E+00  0.14999999963E+04  0.15000000000E+04  0.10566000000E+00 0.  1.
        994   -1    0    0    0    0 -0.00000000000E+00 -0.00000000000E+00  0.11368683772E-12  0.17120000000E+03  0.17120000000E+03 0.  0.
         13    1    1    2    0    0  0.94851343053E+01  0.77049984263E+01  0.13176413511E+02  0.17971193911E+02  0.10566000000E+00 0.  1.
        994    1    1    2    0    0 -0.99627317404E+01 -0.46356822877E+01  0.52648312516E+01  0.17163305049E+03  0.17120000000E+03 0.  0.
        998    1    1    2    0    0  0.47759743510E+00 -0.30693161385E+01  0.14815587515E+04  0.14815957556E+04  0.10000000000E+02 0.  1.
</event>
<event>
 5    1  0.9130022E-009  0.3661246E+03  0.7957747E-01  0.3513893E+00
         13   -1    0    0    0    0  0.00000000000E+00  0.00000000000E+00  0.14999999963E+04  0.15000000000E+04  0.10566000000E+00 0. -1.
        994   -1    0    0    0    0 -0.00000000000E+00 -0.00000000000E+00  0.11368683772E-12  0.17120000000E+03  0.17120000000E+03 0.  0.
         13    1    1    2    0    0  0.13842201006E+03  0.21722376655E+03  0.10487065196E+04  0.10798760082E+04  0.10566000000E+00 0. -1.
        994    1    1    2    0    0 -0.14868375888E+03 -0.20385682978E+03  0.26492932202E+03  0.40393248553E+03  0.17120000000E+03 0.  0.
        998    1    1    2    0    0  0.10261748825E+02 -0.13366936779E+02  0.18636415466E+03  0.18739150629E+03  0.10000000000E+02 0.  0.
</event>
<event>
 5    1  0.9130022E-009  0.3855482E+03  0.7957747E-01  0.3427351E+00
         13   -1    0    0    0    0  0.00000000000E+00  0.00000000000E+00  0.14999999963E+04  0.15000000000E+04  0.10566000000E+00 0. -1.
        994   -1    0    0    0    0 -0.00000000000E+00 -0.00000000000E+00  0.11368683772E-12  0.17120000000E+03  0.17120000000E+03 0.  0.
         13    1    1    2    0    0 -0.20556137414E+01 -0.10026184958E+02  0.34797810260E+02  0.36271871961E+02  0.10566000000E+00 0. -1.
        994    1    1    2    0    0  0.24880631958E+01  0.27979575450E+02  0.39528031039E+01  0.17353418036E+03  0.17120000000E+03 0.  0.
        998    1    1    2    0    0 -0.43244945440E+00 -0.17953390493E+02  0.14612493829E+04  0.14613939477E+04  0.10000000000E+02 0. -1.
</event>
<event>
 5    1  0.9130022E-009  0.3824982E+03  0.7957747E-01  0.3440352E+00
         13   -1    0    0    0    0  0.00000000000E+00  0.00000000000E+00  0.14999999963E+04  0.15000000000E+04  0.10566000000E+00 0. -1.
        994   -1    0    0    0    0 -0.00000000000E+00 -0.00000000000E+00  0.11368683772E-12  0.17120000000E+03  0.17120000000E+03 0.  0.
         13    1    1    2    0    0  0.20072230783E+02 -0.67000739007E+01  0.65701098218E+02  0.69024857189E+02  0.10566000000E+00 0. -1.
        994    1    1    2    0    0 -0.58697580420E+02 -0.26670348504E+02  0.16783605479E+02  0.18370585959E+03  0.17120000000E+03 0.  0.
        998    1    1    2    0    0  0.38625349636E+02  0.33370422405E+02  0.14175152926E+04  0.14184692832E+04  0.10000000000E+02 0. -1.
</event>
<event>
 5    1  0.9130022E-009  0.3821670E+03  0.7957747E-01  0.3441777E+00
         13   -1    0    0    0    0  0.00000000000E+00  0.00000000000E+00  0.14999999963E+04  0.15000000000E+04  0.10566000000E+00 0. -1.
        994   -1    0    0    0    0 -0.00000000000E+00 -0.00000000000E+00  0.11368683772E-12  0.17120000000E+03  0.17120000000E+03 0.  0.
         13    1    1    2    0    0  0.17958743458E+01 -0.23545359135E+02  0.85275322901E+02  0.88484467345E+02  0.10566000000E+00 0. -1.
        994    1    1    2    0    0 -0.99564484245E+00  0.26015580987E+02  0.52962261484E+01  0.17324921868E+03  0.17120000000E+03 0.  0.
        998    1    1    2    0    0 -0.80022950337E+00 -0.24702218518E+01  0.14094284472E+04  0.14094663140E+04  0.10000000000E+02 0. -1.
</event>
<event>
 5    1  0.9130022E-009  0.3685880E+03  0.7957747E-01  0.3502405E+00
         13   -1    0    0    0    0  0.00000000000E+00  0.00000000000E+00  0.14999999963E+04  0.15000000000E+04  0.10566000000E+00 0.  1.
        994   -1    0    0    0    0 -0.00000000000E+00 -0.00000000000E+00  0.11368683772E-12  0.17120000000E+03  0.17120000000E+03 0.  0.
         13    1    1    2    0    0 -0.10725637395E+03  0.77705052219E+02  0.59381310365E+03  0.60840448562E+03  0.10566000000E+00 0.  1.
        994    1    1    2    0    0  0.99466528272E+02 -0.62872599693E+02  0.59789170373E+02  0.21617293756E+03  0.17120000000E+03 0.  0.
        998    1    1    2    0    0  0.77898456776E+01 -0.14832452526E+02  0.84639772225E+03  0.84662257682E+03  0.10000000000E+02 0.  1.
</event>
<event>
 5    1  0.9130022E-009  0.2943318E+03  0.7957747E-01  0.3937335E+00
         13   -1    0    0    0    0  0.00000000000E+00  0.00000000000E+00  0.14999999963E+04  0.15000000000E+04  0.10566000000E+00 0.  1.
        994   -1    0    0    0    0 -0.00000000000E+00 -0.00000000000E+00  0.11368683772E-12  0.17120000000E+03  0.17120000000E+03 0.  0.
         13    1    1    2    0    0 -0.18910906139E+03 -0.10048848299E+03  0.45729805114E+03  0.50495711803E+03  0.10566000000E+00 0.  1.
        994    1    1    2    0    0  0.21157956444E+03  0.11595521099E+03  0.29435382066E+03  0.41733096552E+03  0.17120000000E+03 0.  0.
        998    1    1    2    0    0 -0.22470503057E+02 -0.15466728002E+02  0.74834812448E+03  0.74891191645E+03  0.10000000000E+02 0.  1.
</event>
<event>
 5    1  0.9130022E-009  0.3848432E+03  0.7957747E-01  0.3430338E+00
         13   -1    0    0    0    0  0.00000000000E+00  0.00000000000E+00  0.14999999963E+04  0.15000000000E+04  0.10566000000E+00 0. -1.
        994   -1    0    0    0    0 -0.00000000000E+00 -0.00000000000E+00  0.11368683772E-12  0.17120000000E+03  0.17120000000E+03 0.  0.
         13    1    1    2    0    0 -0.11058355285E+02 -0.68739687215E+01  0.50122868534E+02  0.51786598476E+02  0.10566000000E+00 0. -1.
        994    1    1    2    0    0  0.75494005340E+01  0.23995280828E-01  0.18955675525E+01  0.17137685725E+03  0.17120000000E+03 0.  0.
        998    1    1    2    0    0  0.35089547509E+01  0.68499734407E+01  0.14479815602E+04  0.14480365443E+04  0.10000000000E+02 0. -1.
</event>
<event>
 5    1  0.9130022E-009  0.3705554E+03  0.7957747E-01  0.3493342E+00
         13   -1    0    0    0    0  0.00000000000E+00  0.00000000000E+00  0.14999999963E+04  0.15000000000E+04  0.10566000000E+00 0. -1.
        994   -1    0    0    0    0 -0.00000000000E+00 -0.00000000000E+00  0.11368683772E-12  0.17120000000E+03  0.17120000000E+03 0.  0.
         13    1    1    2    0    0  0.87303577240E+02  0.20112405210E+02  0.50060234002E+03  0.50855593345E+03  0.10566000000E+00 0. -1.
        994    1    1    2    0    0 -0.88190090779E+01 -0.26516812762E+02  0.13973029374E+02  0.17402758928E+03  0.17120000000E+03 0.  0.
        998    1    1    2    0    0 -0.78484568162E+02  0.64044075525E+01  0.98542462688E+03  0.98861647727E+03  0.10000000000E+02 0. -1.
</event>
<event>
 5    1  0.9130022E-009  0.3770060E+03  0.7957747E-01  0.3464300E+00
         13   -1    0    0    0    0  0.00000000000E+00  0.00000000000E+00  0.14999999963E+04  0.15000000000E+04  0.10566000000E+00 0.  1.
        994   -1    0    0    0    0 -0.00000000000E+00 -0.00000000000E+00  0.11368683772E-12  0.17120000000E+03  0.17120000000E+03 0.  0.
         13    1    1    2    0    0  0.50134721771E+02  0.17121498547E+02  0.28643711932E+03  0.29129516050E+03  0.10566000000E+00 0.  1.
        994    1    1    2    0    0 -0.11176395304E+02 -0.33656652223E+01  0.61123268151E+01  0.17170626096E+03  0.17120000000E+03 0.  0.
        998    1    1    2    0    0 -0.38958326467E+02 -0.13755833325E+02  0.12074505501E+04  0.12081985785E+04  0.10000000000E+02 0.  1.
</event>
<event>
 5    1  0.9130022E-009  0.3855090E+03  0.7957747E-01  0.3427516E+00
         13   -1    0    0    0    0  0.00000000000E+00  0.00000000000E+00  0.14999999963E+04  0.15000000000E+04  0.10566000000E+00 0. -1.
        994   -1    0    0    0    0 -0.00000000000E+00 -0.00000000000E+00  0.11368683772E-12  0.17120000000E+03  0.17120000000E+03 0.  0.
         13    1    1    2    0    0 -0.12500095736E+02 -0.20272380751E+01  0.57124820260E+02  0.58511694057E+02  0.10566000000E+00 0. -1.
        994    1    1    2    0    0  0.15249912492E+02 -0.15723076820E+02  0.29544277639E+01  0.17262080877E+03  0.17120000000E+03 0.  0.
        998    1    1    2    0    0 -0.27498167556E+01  0.17750314895E+02  0.14399207483E+04  0.14400674972E+04  0.10000000000E+02 0. -1.
</event>
<event>
 5    1  0.9130022E-009  0.3848150E+03  0.7957747E-01  0.3430457E+00
         13   -1    0    0    0    0  0.00000000000E+00  0.00000000000E+00  0.14999999963E+04  0.15000000000E+04  0.10566000000E+00 0. -1.
        994   -1    0    0    0    0 -0.00000000000E+00 -0.00000000000E+00  0.11368683772E-12  0.17120000000E+03  0.17120000000E+03 0.  0.
         13    1    1    2    0    0 -0.12941298294E+02  0.73549211501E+01  0.64054952170E+02  0.65761844015E+02  0.10566000000E+00 0. -1.
        994    1    1    2    0    0  0.59115041036E+01 -0.10521700563E+02  0.22014693074E+01  0.17163897731E+03  0.17120000000E+03 0.  0.
        998    1    1    2    0    0  0.70297941906E+01  0.31667794127E+01  0.14337435748E+04  0.14337991787E+04  0.10000000000E+02 0. -1.
</event>
<event>
 5    1  0.9130022E-009  0.3804117E+03  0.7957747E-01  0.3449368E+00
         13   -1    0    0    0    0  0.00000000000E+00  0.00000000000E+00  0.14999999963E+04  0.15000000000E+04  0.10566000000E+00 0. -1.
        994   -1    0    0    0    0 -0.00000000000E+00 -0.00000000000E+00  0.11368683772E-12  0.17120000000E+03  0.17120000000E+03 0.  0.
         13    1    1    2    0    0  0.10976215374E+02  0.30277101772E+01  0.16167801435E+02  0.19775067639E+02  0.10566000000E+00 0. -1.
        994    1    1    2    0    0  0.36976943256E+02 -0.33985716164E+02  0.12392281677E+02  0.17884443486E+03  0.17120000000E+03 0.  0.
        998    1    1    2    0    0 -0.47953158630E+02  0.30958005987E+02  0.14714399132E+04  0.14725804975E+04  0.10000000000E+02 0. -1.
</event>
<event>
 5    1  0.9130022E-009  0.3738535E+03  0.7957747E-01  0.3478366E+00
         13   -1    0    0    0    0  0.00000000000E+00  0.00000000000E+00  0.14999999963E+04  0.15000000000E+04  0.10566000000E+00 0. -1.
        994   -1    0    0    0    0 -0.00000000000E+00 -0.00000000000E+00  0.11368683772E-12  0.17120000000E+03  0.17120000000E+03 0.  0.
         13    1    1    2    0    0  0.40232809550E+02 -0.18967587893E+02  0.15717623529E+03  0.16334879387E+03  0.10566000000E+00 0. -1.
        994    1    1    2    0    0  0.22305279349E+01 -0.67263269048E+01  0.74400309772E+01  0.17150805459E+03  0.17120000000E+03 0.  0.
        998    1    1    2    0    0 -0.42463337485E+02  0.25693914798E+02  0.13353837300E+04  0.13363431515E+04  0.10000000000E+02 0. -1.
</event>
<event>
 5    1  0.9130022E-009  0.3833858E+03  0.7957747E-01  0.3436547E+00
         13   -1    0    0    0    0  0.00000000000E+00  0.00000000000E+00  0.14999999963E+04  0.15000000000E+04  0.10566000000E+00 0. -1.
        994   -1    0    0    0    0 -0.00000000000E+00 -0.00000000000E+00  0.11368683772E-12  0.17120000000E+03  0.17120000000E+03 0.  0.
         13    1    1    2    0    0 -0.73171244075E+01  0.14509795869E+02  0.53694470031E+02  0.56099748321E+02  0.10566000000E+00 0. -1.
        994    1    1    2    0    0  0.14499380207E+02 -0.43002890165E+01  0.31902178525E+01  0.17189631178E+03  0.17120000000E+03 0.  0.
        998    1    1    2    0    0 -0.71822557998E+01 -0.10209506853E+02  0.14431153084E+04  0.14432039399E+04  0.10000000000E+02 0. -1.
</event>
<event>
 5    1  0.9130022E-009  0.3801597E+03  0.7957747E-01  0.3450463E+00
         13   -1    0    0    0    0  0.00000000000E+00  0.00000000000E+00  0.14999999963E+04  0.15000000000E+04  0.10566000000E+00 0.  1.
        994   -1    0    0    0    0 -0.00000000000E+00 -0.00000000000E+00  0.11368683772E-12  0.17120000000E+03  0.17120000000E+03 0.  0.
         13    1    1    2    0    0 -0.63664347451E+01  0.28367020334E+02  0.11599990311E+03  0.11958765831E+03  0.10566000000E+00 0.  1.
        994    1    1    2    0    0 -0.86762318213E+02 -0.24285979276E+02  0.31669058970E+02  0.19603539973E+03  0.17120000000E+03 0.  0.
        998    1    1    2    0    0  0.93128752958E+02 -0.40810410572E+01  0.13523310342E+04  0.13555769420E+04  0.10000000000E+02 0.  1.
</event>
<event>
 5    1  0.9130022E-009  0.3770475E+03  0.7957747E-01  0.3464116E+00
         13   -1    0    0    0    0  0.00000000000E+00  0.00000000000E+00  0.14999999963E+04  0.15000000000E+04  0.10566000000E+00 0. -1.
        994   -1    0    0    0    0 -0.00000000000E+00 -0.00000000000E+00  0.11368683772E-12  0.17120000000E+03  0.17120000000E+03 0.  0.
         13    1    1    2    0    0  0.94943152303E+02 -0.61721649034E+01  0.25579315151E+03  0.27291472169E+03  0.10566000000E+00 0. -1.
        994    1    1    2    0    0 -0.91964122639E+02 -0.13286837202E+02  0.46355432239E+02  0.20023038229E+03  0.17120000000E+03 0.  0.
        998    1    1    2    0    0 -0.29790296643E+01  0.19459002105E+02  0.11978514125E+04  0.11980548960E+04  0.10000000000E+02 0. -1.
</event>
<event>
 5    1  0.9130022E-009  0.3752914E+03  0.7957747E-01  0.3471920E+00
         13   -1    0    0    0    0  0.00000000000E+00  0.00000000000E+00  0.14999999963E+04  0.15000000000E+04  0.10566000000E+00 0. -1.
        994   -1    0    0    0    0 -0.00000000000E+00 -0.00000000000E+00  0.11368683772E-12  0.17120000000E+03  0.17120000000E+03 0.  0.
         13    1    1    2    0    0  0.35811411451E+02  0.23389031651E+02  0.12705981206E+03  0.13406606952E+03  0.10566000000E+00 0. -1.
        994    1    1    2    0    0 -0.37351702581E+02 -0.20994511154E+02  0.12789274806E+02  0.17694328112E+03  0.17120000000E+03 0.  0.
        998    1    1    2    0    0  0.15402911296E+01 -0.23945204963E+01  0.13601509094E+04  0.13601906494E+04  0.10000000000E+02 0. -1.
</event>
<event>
 5    1  0.9130022E-009  0.3805930E+03  0.7957747E-01  0.3448581E+00
         13   -1    0    0    0    0  0.00000000000E+00  0.00000000000E+00  0.14999999963E+04  0.15000000000E+04  0.10566000000E+00 0.  1.
        994   -1    0    0    0    0 -0.00000000000E+00 -0.00000000000E+00  0.11368683772E-12  0.17120000000E+03  0.17120000000E+03 0.  0.
         13    1    1    2    0    0  0.16399743497E+02 -0.79550694153E+01  0.43279952094E+02  0.46961687933E+02  0.10566000000E+00 0.  1.
        994    1    1    2    0    0 -0.81460114620E+01 -0.95450263430E+01  0.43596582205E+01  0.17171462270E+03  0.17120000000E+03 0.  0.
        998    1    1    2    0    0 -0.82537320351E+01  0.17500095758E+02  0.14523603860E+04  0.14525236894E+04  0.10000000000E+02 0.  1.
</event>
<event>
 5    1  0.9130022E-009  0.3847385E+03  0.7957747E-01  0.3430782E+00
         13   -1    0    0    0    0  0.00000000000E+00  0.00000000000E+00  0.14999999963E+04  0.15000000000E+04  0.10566000000E+00 0.  1.
        994   -1    0    0    0    0 -0.00000000000E+00 -0.00000000000E+00  0.11368683772E-12  0.17120000000E+03  0.17120000000E+03 0.  0.
         13    1    1    2    0    0 -0.76944253304E+01 -0.75461830378E+01  0.32568544017E+02  0.34305543037E+02  0.10566000000E+00 0.  1.
        994    1    1    2    0    0  0.58748077990E+01  0.56624020445E+01  0.19792111870E+01  0.17140575673E+03  0.17120000000E+03 0.  0.
        998    1    1    2    0    0  0.18196175314E+01  0.18837809933E+01  0.14654522411E+04  0.14654887002E+04  0.10000000000E+02 0.  1.
</event>
<event>
 5    1  0.9130022E-009  0.3696050E+03  0.7957747E-01  0.3497708E+00
         13   -1    0    0    0    0  0.00000000000E+00  0.00000000000E+00  0.14999999963E+04  0.15000000000E+04  0.10566000000E+00 0. -1.
        994   -1    0    0    0    0 -0.00000000000E+00 -0.00000000000E+00  0.11368683772E-12  0.17120000000E+03  0.17120000000E+03 0.  0.
         13    1    1    2    0    0 -0.16376276620E+03 -0.48693103678E+02  0.65789769590E+03  0.67971953876E+03  0.10566000000E+00 0. -1.
        994    1    1    2    0    0  0.17193843255E+03  0.59175263943E+02  0.13446102386E+03  0.28364369090E+03  0.17120000000E+03 0.  0.
        998    1    1    2    0    0 -0.81756663483E+01 -0.10482160266E+02  0.70764127652E+03  0.70783677034E+03  0.10000000000E+02 0.  1.
</event>
<event>
 5    1  0.9130022E-009  0.3815808E+03  0.7957747E-01  0.3444304E+00
         13   -1    0    0    0    0  0.00000000000E+00  0.00000000000E+00  0.14999999963E+04  0.15000000000E+04  0.10566000000E+00 0.  1.
        994   -1    0    0    0    0 -0.00000000000E+00 -0.00000000000E+00  0.11368683772E-12  0.17120000000E+03  0.17120000000E+03 0.  0.
         13    1    1    2    0    0 -0.60657207898E+01  0.90679748292E+01  0.16435251021E+02  0.19726879539E+02  0.10566000000E+00 0.  1.
        994    1    1    2    0    0  0.67742770371E+01 -0.53649948593E+01  0.35856595776E+01  0.17145544889E+03  0.17120000000E+03 0.  0.
        998    1    1    2    0    0 -0.70855624726E+00 -0.37029799700E+01  0.14799790857E+04  0.14800176716E+04  0.10000000000E+02 0.  1.
</event>
<event>
 5    1  0.9130022E-009  0.3803556E+03  0.7957747E-01  0.3449611E+00
         13   -1    0    0    0    0  0.00000000000E+00  0.00000000000E+00  0.14999999963E+04  0.15000000000E+04  0.10566000000E+00 0.  1.
        994   -1    0    0    0    0 -0.00000000000E+00 -0.00000000000E+00  0.11368683772E-12  0.17120000000E+03  0.17120000000E+03 0.  0.
         13    1    1    2    0    0 -0.62928505475E+02  0.12442764807E+03  0.70662324612E+03  0.72024902605E+03  0.10566000000E+00 0.  1.
        994    1    1    2    0    0  0.10226905590E+03 -0.14054716927E+03  0.11247418395E+03  0.26864911806E+03  0.17120000000E+03 0.  0.
        998    1    1    2    0    0 -0.39340550421E+02  0.16119521198E+02  0.68090256621E+03  0.68230185588E+03  0.10000000000E+02 0.  1.
</event>
<event>
 5    1  0.9130022E-009  0.3798510E+03  0.7957747E-01  0.3451808E+00
         13   -1    0    0    0    0  0.00000000000E+00  0.00000000000E+00  0.14999999963E+04  0.15000000000E+04  0.10566000000E+00 0.  1.
        994   -1    0    0    0    0 -0.00000000000E+00 -0.00000000000E+00  0.11368683772E-12  0.17120000000E+03  0.17120000000E+03 0.  0.
         13    1    1    2    0    0 -0.19329678251E+02 -0.11793594202E+01  0.45564180918E+02  0.49508919365E+02  0.10566000000E+00 0.  1.
        994    1    1    2    0    0 -0.38750080489E+01  0.43822102378E+01  0.43228418602E+01  0.17135444673E+03  0.17120000000E+03 0.  0.
        998    1    1    2    0    0  0.23204686300E+02 -0.32028508176E+01  0.14501129735E+04  0.14503366339E+04  0.10000000000E+02 0.  1.
</event>
<event>
 5    1  0.9130022E-009  0.3703506E+03  0.7957747E-01  0.3494281E+00
         13   -1    0    0    0    0  0.00000000000E+00  0.00000000000E+00  0.14999999963E+04  0.15000000000E+04  0.10566000000E+00 0. -1.
        994   -1    0    0    0    0 -0.00000000000E+00 -0.00000000000E+00  0.11368683772E-12  0.17120000000E+03  0.17120000000E+03 0.  0.
         13    1    1    2    0    0  0.91191428112E+00  0.10744777430E+02  0.21454401727E+01  0.10995267493E+02  0.10566000000E+00 0. -1.
        994    1    1    2    0    0 -0.30717091253E+01 -0.10187865678E+02  0.94770632124E+01  0.17179197517E+03  0.17120000000E+03 0.  0.
        998    1    1    2    0    0  0.21597948441E+01 -0.55691175194E+00  0.14883774929E+04  0.14884127573E+04  0.10000000000E+02 0. -1.
</event>
<event>
 5    1  0.9130022E-009  0.3817507E+03  0.7957747E-01  0.3443571E+00
         13   -1    0    0    0    0  0.00000000000E+00  0.00000000000E+00  0.14999999963E+04  0.15000000000E+04  0.10566000000E+00 0. -1.
        994   -1    0    0    0    0 -0.00000000000E+00 -0.00000000000E+00  0.11368683772E-12  0.17120000000E+03  0.17120000000E+03 0.  0.
         13    1    1    2    0    0  0.22960638313E+02 -0.12983026355E+02  0.10045223513E+03  0.10385765543E+03  0.10566000000E+00 0. -1.
        994    1    1    2    0    0 -0.33282550652E+02 -0.62692547257E+01  0.70737848941E+01  0.17466112952E+03  0.17120000000E+03 0.  0.
        998    1    1    2    0    0  0.10321912339E+02  0.19252281081E+02  0.13924739763E+04  0.13926812150E+04  0.10000000000E+02 0. -1.
</event>
<event>
 5    1  0.9130022E-009  0.3758511E+03  0.7957747E-01  0.3469425E+00
         13   -1    0    0    0    0  0.00000000000E+00  0.00000000000E+00  0.14999999963E+04  0.15000000000E+04  0.10566000000E+00 0. -1.
        994   -1    0    0    0    0 -0.00000000000E+00 -0.00000000000E+00  0.11368683772E-12  0.17120000000E+03  0.17120000000E+03 0.  0.
         13    1    1    2    0    0  0.12880469852E+02  0.94485750838E+01  0.27381310008E+01  0.16207732726E+02  0.10566000000E+00 0. -1.
        994    1    1    2    0    0 -0.71170978086E+01 -0.55418378382E+01  0.14357261288E+02  0.17203760054E+03  0.17120000000E+03 0.  0.
        998    1    1    2    0    0 -0.57633720429E+01 -0.39067372456E+01  0.14829046040E+04  0.14829546667E+04  0.10000000000E+02 0. -1.
</event>
<event>
 5    1  0.9130022E-009  0.3701831E+03  0.7957747E-01  0.3495050E+00
         13   -1    0    0    0    0  0.00000000000E+00  0.00000000000E+00  0.14999999963E+04  0.15000000000E+04  0.10566000000E+00 0. -1.
        994   -1    0    0    0    0 -0.00000000000E+00 -0.00000000000E+00  0.11368683772E-12  0.17120000000E+03  0.17120000000E+03 0.  0.
         13    1    1    2    0    0 -0.34775074463E+02 -0.67394506433E+02  0.21718336377E+03  0.23004336540E+03  0.10566000000E+00 0. -1.
        994    1    1    2    0    0  0.35776135880E+02  0.69492094012E+02  0.32724119678E+02  0.19102196480E+03  0.17120000000E+03 0.  0.
        998    1    1    2    0    0 -0.10010614165E+01 -0.20975875786E+01  0.12500925128E+04  0.12501346698E+04  0.10000000000E+02 0. -1.
</event>
<event>
 5    1  0.9130022E-009  0.3826620E+03  0.7957747E-01  0.3439649E+00
         13   -1    0    0    0    0  0.00000000000E+00  0.00000000000E+00  0.14999999963E+04  0.15000000000E+04  0.10566000000E+00 0. -1.
        994   -1    0    0    0    0 -0.00000000000E+00 -0.00000000000E+00  0.11368683772E-12  0.17120000000E+03  0.17120000000E+03 0.  0.
         13    1    1    2    0    0 -0.54265924972E+01  0.87261970427E+01  0.18352963600E+02  0.21034183081E+02  0.10566000000E+00 0. -1.
        994    1    1    2    0    0  0.50488783221E+01  0.68587132128E+01  0.30357964742E+01  0.17143858720E+03  0.17120000000E+03 0.  0.
        998    1    1    2    0    0  0.37771417510E+00 -0.15584910255E+02  0.14786112362E+04  0.14787272297E+04  0.10000000000E+02 0. -1.
</event>
<event>
 5    1  0.1147998E-008  0.3861349E+03  0.7957747E-01  0.3424873E+00
         13   -1    0    0    0    0  0.00000000000E+00  0.00000000000E+00  0.14999999963E+04  0.15000000000E+04  0.10566000000E+00 0. -1.
        994   -1    0    0    0    0 -0.00000000000E+00 -0.00000000000E+00  0.11368683772E-12  0.17120000000E+03  0.17120000000E+03 0.  0.
         13    1    1    2    0    0 -0.48060195094E+01  0.99651294043E+01  0.53067987269E+02  0.54209077325E+02  0.10566000000E+00 0. -1.
        994    1    1    2    0    0  0.38304617808E+02 -0.59991020294E+01  0.60087711230E+01  0.17563820285E+03  0.17120000000E+03 0.  0.
        998    1    1    2    0    0 -0.33498598299E+02 -0.39660273749E+01  0.14409232379E+04  0.14413527198E+04  0.10000000000E+02 0. -1.
</event>
<event>
 5    1  0.9130022E-009  0.3853810E+03  0.7957747E-01  0.3428058E+00
         13   -1    0    0    0    0  0.00000000000E+00  0.00000000000E+00  0.14999999963E+04  0.15000000000E+04  0.10566000000E+00 0.  1.
        994   -1    0    0    0    0 -0.00000000000E+00 -0.00000000000E+00  0.11368683772E-12  0.17120000000E+03  0.17120000000E+03 0.  0.
         13    1    1    2    0    0 -0.19469905255E+02 -0.16284106461E+02  0.15231560907E+03  0.15441601363E+03  0.10566000000E+00 0.  1.
        994    1    1    2    0    0  0.45671112930E+02  0.31878976786E+02  0.11697440095E+02  0.18041172307E+03  0.17120000000E+03 0.  0.
        998    1    1    2    0    0 -0.26201207675E+02 -0.15594870325E+02  0.13359869471E+04  0.13363722633E+04  0.10000000000E+02 0.  1.
</event>
<event>
 5    1  0.9130022E-009  0.3769905E+03  0.7957747E-01  0.3464368E+00
         13   -1    0    0    0    0  0.00000000000E+00  0.00000000000E+00  0.14999999963E+04  0.15000000000E+04  0.10566000000E+00 0. -1.
        994   -1    0    0    0    0 -0.00000000000E+00 -0.00000000000E+00  0.11368683772E-12  0.17120000000E+03  0.17120000000E+03 0.  0.
         13    1    1    2    0    0 -0.85459313630E+02  0.81961278012E+01  0.21204428517E+03  0.22876464070E+03  0.10566000000E+00 0. -1.
        994    1    1    2    0    0  0.83648183982E+02 -0.19135753143E+02  0.41570960357E+02  0.19596117084E+03  0.17120000000E+03 0.  0.
        998    1    1    2    0    0  0.18111296483E+01  0.10939625342E+02  0.12463847508E+04  0.12464741885E+04  0.10000000000E+02 0. -1.
</event>
<event>
 5    1  0.9130022E-009  0.3829856E+03  0.7957747E-01  0.3438261E+00
         13   -1    0    0    0    0  0.00000000000E+00  0.00000000000E+00  0.14999999963E+04  0.15000000000E+04  0.10566000000E+00 0.  1.
        994   -1    0    0    0    0 -0.00000000000E+00 -0.00000000000E+00  0.11368683772E-12  0.17120000000E+03  0.17120000000E+03 0.  0.
         13    1    1    2    0    0 -0.14060466211E+02  0.12285889972E+02  0.63322662512E+02  0.66018259248E+02  0.10566000000E+00 0.  1.
        994    1    1    2    0    0  0.16931005080E+02 -0.88883144793E+01  0.38449207644E+01  0.17230752881E+03  0.17120000000E+03 0.  0.
        998    1    1    2    0    0 -0.28705388694E+01 -0.33975754928E+01  0.14328324130E+04  0.14328742119E+04  0.10000000000E+02 0.  1.
</event>
<event>
 5    1  0.9130022E-009  0.3843935E+03  0.7957747E-01  0.3432248E+00
         13   -1    0    0    0    0  0.00000000000E+00  0.00000000000E+00  0.14999999963E+04  0.15000000000E+04  0.10566000000E+00 0. -1.
        994   -1    0    0    0    0 -0.00000000000E+00 -0.00000000000E+00  0.11368683772E-12  0.17120000000E+03  0.17120000000E+03 0.  0.
         13    1    1    2    0    0  0.85095099352E+01 -0.93947291377E+01  0.42226185776E+02  0.44087805844E+02  0.10566000000E+00 0. -1.
        994    1    1    2    0    0  0.22738347857E+01  0.68331783418E+01  0.21024560477E+01  0.17136429900E+03  0.17120000000E+03 0.  0.
        998    1    1    2    0    0 -0.10783344721E+02  0.25615507959E+01  0.14556713545E+04  0.14557478952E+04  0.10000000000E+02 0. -1.
</event>
<event>
 5    1  0.9130022E-009  0.3842283E+03  0.7957747E-01  0.3432952E+00
         13   -1    0    0    0    0  0.00000000000E+00  0.00000000000E+00  0.14999999963E+04  0.15000000000E+04  0.10566000000E+00 0. -1.
        994   -1    0    0    0    0 -0.00000000000E+00 -0.00000000000E+00  0.11368683772E-12  0.17120000000E+03  0.17120000000E+03 0.  0.
         13    1    1    2    0    0 -0.53408033744E+00  0.19933519402E+02  0.95450726487E+02  0.97511449525E+02  0.10566000000E+00 0. -1.
        994    1    1    2    0    0 -0.22669200224E+01 -0.17068582255E+02  0.29918249549E+01  0.17208970464E+03  0.17120000000E+03 0.  0.
        998    1    1    2    0    0  0.28010003599E+01 -0.28649371466E+01  0.14015574448E+04  0.14015988458E+04  0.10000000000E+02 0. -1.
</event>
<event>
 5    1  0.9130022E-009  0.3801751E+03  0.7957747E-01  0.3450396E+00
         13   -1    0    0    0    0  0.00000000000E+00  0.00000000000E+00  0.14999999963E+04  0.15000000000E+04  0.10566000000E+00 0. -1.
        994   -1    0    0    0    0 -0.00000000000E+00 -0.00000000000E+00  0.11368683772E-12  0.17120000000E+03  0.17120000000E+03 0.  0.
         13    1    1    2    0    0  0.77791550016E+01 -0.83085045277E+01  0.14157157474E+02  0.18165427928E+02  0.10566000000E+00 0. -1.
        994    1    1    2    0    0 -0.75714861876E+01  0.86197388410E+01  0.44846586272E+01  0.17164259222E+03  0.17120000000E+03 0.  0.
        998    1    1    2    0    0 -0.20766881395E+00 -0.31123431333E+00  0.14813581802E+04  0.14813919799E+04  0.10000000000E+02 0. -1.
</event>
<event>
 5    1  0.1057402E-008  0.3863390E+03  0.7957747E-01  0.3424013E+00
         13   -1    0    0    0    0  0.00000000000E+00  0.00000000000E+00  0.14999999963E+04  0.15000000000E+04  0.10566000000E+00 0.  1.
        994   -1    0    0    0    0 -0.00000000000E+00 -0.00000000000E+00  0.11368683772E-12  0.17120000000E+03  0.17120000000E+03 0.  0.
         13    1    1    2    0    0 -0.37039923231E+00 -0.11947282074E+02  0.70999024645E+02  0.71998245876E+02  0.10566000000E+00 0.  1.
        994    1    1    2    0    0  0.46559981978E+01  0.14635343311E+02  0.17395130636E+01  0.17189629868E+03  0.17120000000E+03 0.  0.
        998    1    1    2    0    0 -0.42855989655E+01 -0.26880612369E+01  0.14272614586E+04  0.14273054554E+04  0.10000000000E+02 0.  1.
</event>
<event>
 5    1  0.9130022E-009  0.3854937E+03  0.7957747E-01  0.3427581E+00
         13   -1    0    0    0    0  0.00000000000E+00  0.00000000000E+00  0.14999999963E+04  0.15000000000E+04  0.10566000000E+00 0. -1.
        994   -1    0    0    0    0 -0.00000000000E+00 -0.00000000000E+00  0.11368683772E-12  0.17120000000E+03  0.17120000000E+03 0.  0.
         13    1    1    2    0    0 -0.71387724083E+01 -0.12996691657E+02  0.78771554550E+02  0.80155131063E+02  0.10566000000E+00 0. -1.
        994    1    1    2    0    0  0.26647614502E+01  0.11517997430E+02  0.18442370369E+01  0.17161761689E+03  0.17120000000E+03 0.  0.
        998    1    1    2    0    0  0.44740109580E+01  0.14786942274E+01  0.14193842047E+04  0.14194272520E+04  0.10000000000E+02 0. -1.
</event>
<event>
 5    1  0.9130022E-009  0.3796758E+03  0.7957747E-01  0.3452571E+00
         13   -1    0    0    0    0  0.00000000000E+00  0.00000000000E+00  0.14999999963E+04  0.15000000000E+04  0.10566000000E+00 0. -1.
        994   -1    0    0    0    0 -0.00000000000E+00 -0.00000000000E+00  0.11368683772E-12  0.17120000000E+03  0.17120000000E+03 0.  0.
         13    1    1    2    0    0 -0.23798753723E+02  0.10257593726E+02  0.81931193595E+02  0.85932127611E+02  0.10566000000E+00 0. -1.
        994    1    1    2    0    0 -0.86387731362E+01 -0.25420514373E+02  0.67128983153E+01  0.17342241480E+03  0.17120000000E+03 0.  0.
        998    1    1    2    0    0  0.32437526859E+02  0.15162920647E+02  0.14113559044E+04  0.14118454576E+04  0.10000000000E+02 0. -1.
</event>
<event>
 5    1  0.9130022E-009  0.3841605E+03  0.7957747E-01  0.3433241E+00
         13   -1    0    0    0    0  0.00000000000E+00  0.00000000000E+00  0.14999999963E+04  0.15000000000E+04  0.10566000000E+00 0. -1.
        994   -1    0    0    0    0 -0.00000000000E+00 -0.00000000000E+00  0.11368683772E-12  0.17120000000E+03  0.17120000000E+03 0.  0.
         13    1    1    2    0    0 -0.58371620225E+00  0.13045260844E+02  0.40725565903E+02  0.42768007170E+02  0.10566000000E+00 0. -1.
        994    1    1    2    0    0  0.24805909607E+01 -0.11134193665E+02  0.24767351709E+01  0.17159748779E+03  0.17120000000E+03 0.  0.
        998    1    1    2    0    0 -0.18968747585E+01 -0.19110671784E+01  0.14567976952E+04  0.14568345050E+04  0.10000000000E+02 0. -1.
</event>
<event>
 5    1  0.1003273E-008  0.3859421E+03  0.7957747E-01  0.3425687E+00
         13   -1    0    0    0    0  0.00000000000E+00  0.00000000000E+00  0.14999999963E+04  0.15000000000E+04  0.10566000000E+00 0.  1.
        994   -1    0    0    0    0 -0.00000000000E+00 -0.00000000000E+00  0.11368683772E-12  0.17120000000E+03  0.17120000000E+03 0.  0.
         13    1    1    2    0    0  0.68083016810E+01  0.10859723753E+02  0.66844603538E+02  0.68062462180E+02  0.10566000000E+00 0.  1.
        994    1    1    2    0    0 -0.72627927058E+01 -0.15880790248E+02  0.21635901200E+01  0.17210191393E+03  0.17120000000E+03 0.  0.
        998    1    1    2    0    0  0.45449102480E+00  0.50210664952E+01  0.14309918026E+04  0.14310356239E+04  0.10000000000E+02 0.  1.
</event>
<event>
 5    1  0.9130022E-009  0.3846161E+03  0.7957747E-01  0.3431302E+00
         13   -1    0    0    0    0  0.00000000000E+00  0.00000000000E+00  0.14999999963E+04  0.15000000000E+04  0.10566000000E+00 0.  1.
        994   -1    0    0    0    0 -0.00000000000E+00 -0.00000000000E+00  0.11368683772E-12  0.17120000000E+03  0.17120000000E+03 0.  0.
         13    1    1    2    0    0 -0.98835604142E+01  0.16235619292E+02  0.10676574083E+03  0.10844452350E+03  0.10566000000E+00 0.  1.
        994    1    1    2    0    0  0.65720510905E+01  0.10582901864E+01  0.19667902484E+01  0.17134065512E+03  0.17120000000E+03 0.  0.
        998    1    1    2    0    0  0.33115093236E+01 -0.17293909478E+02  0.13912674652E+04  0.13914148214E+04  0.10000000000E+02 0.  1.
</event>
<event>
 5    1  0.9130022E-009  0.3990239E+03  0.7957747E-01  0.3372289E+00
         13   -1    0    0    0    0  0.00000000000E+00  0.00000000000E+00  0.14999999963E+04  0.15000000000E+04  0.10566000000E+00 0. -1.
        994   -1    0    0    0    0 -0.00000000000E+00 -0.00000000000E+00  0.11368683772E-12  0.17120000000E+03  0.17120000000E+03 0.  0.
         13    1    1    2    0    0 -0.64239262872E+01 -0.98615529499E+02  0.17494499521E+03  0.20092797715E+03  0.10566000000E+00 0. -1.
        994    1    1    2    0    0  0.13127659153E+02  0.60588468795E+02  0.42339896987E+02  0.18693690075E+03  0.17120000000E+03 0.  0.
        998    1    1    2    0    0 -0.67037328663E+01  0.38027060703E+02  0.12827151041E+04  0.12833351221E+04  0.10000000000E+02 0. -1.
</event>
<event>
 5    1  0.9130022E-009  0.3777857E+03  0.7957747E-01  0.3460857E+00
         13   -1    0    0    0    0  0.00000000000E+00  0.00000000000E+00  0.14999999963E+04  0.15000000000E+04  0.10566000000E+00 0. -1.
        994   -1    0    0    0    0 -0.00000000000E+00 -0.00000000000E+00  0.11368683772E-12  0.17120000000E+03  0.17120000000E+03 0.  0.
         13    1    1    2    0    0  0.31989765828E+02  0.24488706809E+02  0.18409544102E+03  0.18845207467E+03  0.10566000000E+00 0. -1.
        994    1    1    2    0    0  0.20365618237E+02 -0.19647774623E+02  0.79565409517E+01  0.17370532519E+03  0.17120000000E+03 0.  0.
        998    1    1    2    0    0 -0.52355384065E+02 -0.48409321859E+01  0.13079480143E+04  0.13090426001E+04  0.10000000000E+02 0. -1.
</event>
<event>
 5    1  0.9130022E-009  0.3838026E+03  0.7957747E-01  0.3434766E+00
         13   -1    0    0    0    0  0.00000000000E+00  0.00000000000E+00  0.14999999963E+04  0.15000000000E+04  0.10566000000E+00 0. -1.
        994   -1    0    0    0    0 -0.00000000000E+00 -0.00000000000E+00  0.11368683772E-12  0.17120000000E+03  0.17120000000E+03 0.  0.
         13    1    1    2    0    0 -0.54010480819E+01  0.10383965742E+02  0.30216704741E+02  0.32404605758E+02  0.10566000000E+00 0. -1.
        994    1    1    2    0    0  0.12654521287E+01 -0.74644160890E+01  0.24150415278E+01  0.17138433797E+03  0.17120000000E+03 0.  0.
        998    1    1    2    0    0  0.41355959532E+01 -0.29195496533E+01  0.14673682500E+04  0.14674110563E+04  0.10000000000E+02 0. -1.
</event>
<event>
 5    1  0.9130022E-009  0.3788311E+03  0.7957747E-01  0.3456264E+00
         13   -1    0    0    0    0  0.00000000000E+00  0.00000000000E+00  0.14999999963E+04  0.15000000000E+04  0.10566000000E+00 0.  1.
        994   -1    0    0    0    0 -0.00000000000E+00 -0.00000000000E+00  0.11368683772E-12  0.17120000000E+03  0.17120000000E+03 0.  0.
         13    1    1    2    0    0  0.20093613012E+02  0.45366881966E+01  0.43681331465E+02  0.48294975994E+02  0.10566000000E+00 0.  1.
        994    1    1    2    0    0 -0.96587938095E+01 -0.45087307737E+00  0.50381981466E+01  0.17154684207E+03  0.17120000000E+03 0.  0.
        998    1    1    2    0    0 -0.10434819203E+02 -0.40858151192E+01  0.14512804667E+04  0.14513581819E+04  0.10000000000E+02 0.  1.
</event>
<event>
 5    1  0.9130022E-009  0.3801592E+03  0.7957747E-01  0.3450466E+00
         13   -1    0    0    0    0  0.00000000000E+00  0.00000000000E+00  0.14999999963E+04  0.15000000000E+04  0.10566000000E+00 0. -1.
        994   -1    0    0    0    0 -0.00000000000E+00 -0.00000000000E+00  0.11368683772E-12  0.17120000000E+03  0.17120000000E+03 0.  0.
         13    1    1    2    0    0  0.29556064663E+02 -0.14136424500E+02  0.12538095061E+03  0.12959086926E+03  0.10566000000E+00 0. -1.
        994    1    1    2    0    0 -0.28030212333E+02  0.45079195107E+01  0.67504982393E+01  0.17366929311E+03  0.17120000000E+03 0.  0.
        998    1    1    2    0    0 -0.15258523300E+01  0.96285049898E+01  0.13678685474E+04  0.13679398376E+04  0.10000000000E+02 0. -1.
</event>
<event>
 5    1  0.9130022E-009  0.3849804E+03  0.7957747E-01  0.3429755E+00
         13   -1    0    0    0    0  0.00000000000E+00  0.00000000000E+00  0.14999999963E+04  0.15000000000E+04  0.10566000000E+00 0.  1.
        994   -1    0    0    0    0 -0.00000000000E+00 -0.00000000000E+00  0.11368683772E-12  0.17120000000E+03  0.17120000000E+03 0.  0.
         13    1    1    2    0    0  0.88196349107E+01 -0.15039745281E+02  0.99187341151E+02  0.10070809156E+03  0.10566000000E+00 0.  1.
        994    1    1    2    0    0  0.84008095678E+01  0.82718918883E+01  0.20971493532E+01  0.17161828525E+03  0.17120000000E+03 0.  0.
        998    1    1    2    0    0 -0.17220444479E+02  0.67678533928E+01  0.13987155058E+04  0.13988736232E+04  0.10000000000E+02 0.  1.
</event>
<event>
 5    1  0.9130022E-009  0.3717353E+03  0.7957747E-01  0.3487954E+00
         13   -1    0    0    0    0  0.00000000000E+00  0.00000000000E+00  0.14999999963E+04  0.15000000000E+04  0.10566000000E+00 0.  1.
        994   -1    0    0    0    0 -0.00000000000E+00 -0.00000000000E+00  0.11368683772E-12  0.17120000000E+03  0.17120000000E+03 0.  0.
         13    1    1    2    0    0 -0.12756960908E+02  0.56969060393E+02  0.13977155285E+03  0.15147379986E+03  0.10566000000E+00 0.  1.
        994    1    1    2    0    0 -0.14848739768E+02 -0.40547105252E+02  0.18446491421E+02  0.17752257846E+03  0.17120000000E+03 0.  0.
        998    1    1    2    0    0  0.27605700676E+02 -0.16421955140E+02  0.13417819520E+04  0.13422036217E+04  0.10000000000E+02 0.  1.
</event>
<event>
 5    1  0.9130022E-009  0.3723464E+03  0.7957747E-01  0.3485176E+00
         13   -1    0    0    0    0  0.00000000000E+00  0.00000000000E+00  0.14999999963E+04  0.15000000000E+04  0.10566000000E+00 0.  1.
        994   -1    0    0    0    0 -0.00000000000E+00 -0.00000000000E+00  0.11368683772E-12  0.17120000000E+03  0.17120000000E+03 0.  0.
         13    1    1    2    0    0 -0.63596701048E+02  0.50006969962E+02  0.40341351568E+03  0.41144588129E+03  0.10566000000E+00 0.  1.
        994    1    1    2    0    0  0.27525505770E+02 -0.40944142781E+02  0.16443003789E+02  0.17892425400E+03  0.17120000000E+03 0.  0.
        998    1    1    2    0    0  0.36071195278E+02 -0.90628271813E+01  0.10801434768E+04  0.10808298647E+04  0.10000000000E+02 0.  1.
</event>
<event>
 5    1  0.9130022E-009  0.3755725E+03  0.7957747E-01  0.3470666E+00
         13   -1    0    0    0    0  0.00000000000E+00  0.00000000000E+00  0.14999999963E+04  0.15000000000E+04  0.10566000000E+00 0.  1.
        994   -1    0    0    0    0 -0.00000000000E+00 -0.00000000000E+00  0.11368683772E-12  0.17120000000E+03  0.17120000000E+03 0.  0.
         13    1    1    2    0    0  0.41156862041E+02 -0.10625514674E+03  0.43080354181E+03  0.44561838640E+03  0.10566000000E+00 0.  1.
        994    1    1    2    0    0 -0.87116758000E+01  0.79429592926E+02  0.37049511270E+02  0.19252807539E+03  0.17120000000E+03 0.  0.
        998    1    1    2    0    0 -0.32445186241E+02  0.26825553810E+02  0.10321469432E+04  0.10330535382E+04  0.10000000000E+02 0.  1.
</event>
<event>
 5    1  0.9130022E-009  0.3839729E+03  0.7957747E-01  0.3434040E+00
         13   -1    0    0    0    0  0.00000000000E+00  0.00000000000E+00  0.14999999963E+04  0.15000000000E+04  0.10566000000E+00 0.  1.
        994   -1    0    0    0    0 -0.00000000000E+00 -0.00000000000E+00  0.11368683772E-12  0.17120000000E+03  0.17120000000E+03 0.  0.
         13    1    1    2    0    0 -0.14158762214E+02 -0.72905795989E+01  0.56344114743E+02  0.58551631305E+02  0.10566000000E+00 0.  1.
        994    1    1    2    0    0  0.16963181821E+02  0.77155680748E+01  0.32876620499E+01  0.17224264353E+03  0.17120000000E+03 0.  0.
        998    1    1    2    0    0 -0.28044196069E+01 -0.42498847593E+00  0.14403682195E+04  0.14404057252E+04  0.10000000000E+02 0.  1.
</event>
<event>
 5    1  0.9130022E-009  0.3835545E+03  0.7957747E-01  0.3435826E+00
         13   -1    0    0    0    0  0.00000000000E+00  0.00000000000E+00  0.14999999963E+04  0.15000000000E+04  0.10566000000E+00 0.  1.
        994   -1    0    0    0    0 -0.00000000000E+00 -0.00000000000E+00  0.11368683772E-12  0.17120000000E+03  0.17120000000E+03 0.  0.
         13    1    1    2    0    0 -0.25739407152E+02  0.15228019190E+01  0.14740075178E+03  0.14963899490E+03  0.10566000000E+00 0.  1.
        994    1    1    2    0    0  0.10215204389E+02  0.27353474419E+01  0.27191104106E+01  0.17154785364E+03  0.17120000000E+03 0.  0.
        998    1    1    2    0    0  0.15524202763E+02 -0.42581493609E+01  0.13498801341E+04  0.13500131515E+04  0.10000000000E+02 0.  1.
</event>
<event>
 5    1  0.9130022E-009  0.3718751E+03  0.7957747E-01  0.3487317E+00
         13   -1    0    0    0    0  0.00000000000E+00  0.00000000000E+00  0.14999999963E+04  0.15000000000E+04  0.10566000000E+00 0.  1.
        994   -1    0    0    0    0 -0.00000000000E+00 -0.00000000000E+00  0.11368683772E-12  0.17120000000E+03  0.17120000000E+03 0.  0.
         13    1    1    2    0    0 -0.62281586552E+02 -0.32517176457E+02  0.34439967756E+03  0.35149326004E+03  0.10566000000E+00 0.  1.
        994    1    1    2    0    0  0.11335476849E+02  0.22436577375E+02  0.10466111715E+02  0.17335187491E+03  0.17120000000E+03 0.  0.
        998    1    1    2    0    0  0.50946109703E+02  0.10080599082E+02  0.11451342070E+04  0.11463548651E+04  0.10000000000E+02 0.  1.
</event>
<event>
 5    1  0.9130022E-009  0.3837613E+03  0.7957747E-01  0.3434943E+00
         13   -1    0    0    0    0  0.00000000000E+00  0.00000000000E+00  0.14999999963E+04  0.15000000000E+04  0.10566000000E+00 0.  1.
        994   -1    0    0    0    0 -0.00000000000E+00 -0.00000000000E+00  0.11368683772E-12  0.17120000000E+03  0.17120000000E+03 0.  0.
         13    1    1    2    0    0  0.38726064633E+02  0.91827782894E+01  0.22505395534E+03  0.22854611237E+03  0.10566000000E+00 0.  1.
        994    1    1    2    0    0 -0.71266058806E+02 -0.25923624156E+01  0.19223318371E+02  0.18645253404E+03  0.17120000000E+03 0.  0.
        998    1    1    2    0    0  0.32539994173E+02 -0.65904158738E+01  0.12557227226E+04  0.12562013536E+04  0.10000000000E+02 0.  1.
</event>
<event>
 5    1  0.9130022E-009  0.3827021E+03  0.7957747E-01  0.3439477E+00
         13   -1    0    0    0    0  0.00000000000E+00  0.00000000000E+00  0.14999999963E+04  0.15000000000E+04  0.10566000000E+00 0. -1.
        994   -1    0    0    0    0 -0.00000000000E+00 -0.00000000000E+00  0.11368683772E-12  0.17120000000E+03  0.17120000000E+03 0.  0.
         13    1    1    2    0    0 -0.88136960925E+01  0.12961255073E+02  0.40882191611E+02  0.43784016796E+02  0.10566000000E+00 0. -1.
        994    1    1    2    0    0  0.68731519499E+01 -0.25688475845E+02  0.51218256607E+01  0.17332862172E+03  0.17120000000E+03 0.  0.
        998    1    1    2    0    0  0.19405441426E+01  0.12727220772E+02  0.14539959790E+04  0.14540873615E+04  0.10000000000E+02 0. -1.
</event>
<event>
 5    1  0.9130022E-009  0.3707828E+03  0.7957747E-01  0.3492301E+00
         13   -1    0    0    0    0  0.00000000000E+00  0.00000000000E+00  0.14999999963E+04  0.15000000000E+04  0.10566000000E+00 0.  1.
        994   -1    0    0    0    0 -0.00000000000E+00 -0.00000000000E+00  0.11368683772E-12  0.17120000000E+03  0.17120000000E+03 0.  0.
         13    1    1    2    0    0 -0.58614181333E+02 -0.30047027409E+02  0.26043632407E+03  0.26863643864E+03  0.10566000000E+00 0.  1.
        994    1    1    2    0    0 -0.14441859939E+02 -0.10882166676E+02  0.12500417968E+02  0.17260558890E+03  0.17120000000E+03 0.  0.
        998    1    1    2    0    0  0.73056041271E+02  0.40929194085E+02  0.12270632542E+04  0.12299579725E+04  0.10000000000E+02 0.  1.
</event>
<event>
 5    1  0.9130022E-009  0.3833310E+03  0.7957747E-01  0.3436782E+00
         13   -1    0    0    0    0  0.00000000000E+00  0.00000000000E+00  0.14999999963E+04  0.15000000000E+04  0.10566000000E+00 0. -1.
        994   -1    0    0    0    0 -0.00000000000E+00 -0.00000000000E+00  0.11368683772E-12  0.17120000000E+03  0.17120000000E+03 0.  0.
         13    1    1    2    0    0  0.17047313397E+02  0.39706543580E+01  0.62620470922E+02  0.65020854598E+02  0.10566000000E+00 0. -1.
        994    1    1    2    0    0 -0.70952686244E+01 -0.54645065443E+01  0.27262818246E+01  0.17145575605E+03  0.17120000000E+03 0.  0.
        998    1    1    2    0    0 -0.99520447729E+01  0.14938521863E+01  0.14346532435E+04  0.14347233894E+04  0.10000000000E+02 0. -1.
</event>
<event>
 5    1  0.1487157E-008  0.3853539E+03  0.7957747E-01  0.3428173E+00
         13   -1    0    0    0    0  0.00000000000E+00  0.00000000000E+00  0.14999999963E+04  0.15000000000E+04  0.10566000000E+00 0. -1.
        994   -1    0    0    0    0 -0.00000000000E+00 -0.00000000000E+00  0.11368683772E-12  0.17120000000E+03  0.17120000000E+03 0.  0.
         13    1    1    2    0    0 -0.24869177020E+01 -0.10394632333E+02  0.38121760614E+02  0.39591829174E+02  0.10566000000E+00 0. -1.
        994    1    1    2    0    0  0.26330975644E+01  0.12867609097E+02  0.20213969778E+01  0.17171498075E+03  0.17120000000E+03 0.  0.
        998    1    1    2    0    0 -0.14617986246E+00 -0.24729767637E+01  0.14598568387E+04  0.14598931901E+04  0.10000000000E+02 0. -1.
</event>
<event>
 5    1  0.9130022E-009  0.3804533E+03  0.7957747E-01  0.3449187E+00
         13   -1    0    0    0    0  0.00000000000E+00  0.00000000000E+00  0.14999999963E+04  0.15000000000E+04  0.10566000000E+00 0.  1.
        994   -1    0    0    0    0 -0.00000000000E+00 -0.00000000000E+00  0.11368683772E-12  0.17120000000E+03  0.17120000000E+03 0.  0.
         13    1    1    2    0    0 -0.74000773250E+01  0.53736504443E+02  0.32565588933E+03  0.33014260930E+03  0.10566000000E+00 0.  1.
        994    1    1    2    0    0  0.57651258859E+01 -0.44914022464E+02  0.10779451336E+02  0.17741517033E+03  0.17120000000E+03 0.  0.
        998    1    1    2    0    0  0.16349514391E+01 -0.88224819794E+01  0.11635646556E+04  0.11636422204E+04  0.10000000000E+02 0.  1.
</event>
<event>
 5    1  0.9130022E-009  0.3186611E+03  0.7957747E-01  0.3771190E+00
         13   -1    0    0    0    0  0.00000000000E+00  0.00000000000E+00  0.14999999963E+04  0.15000000000E+04  0.10566000000E+00 0.  1.
        994   -1    0    0    0    0 -0.00000000000E+00 -0.00000000000E+00  0.11368683772E-12  0.17120000000E+03  0.17120000000E+03 0.  0.
         13    1    1    2    0    0  0.37180905157E+02 -0.19344670444E+03  0.95517509864E+03  0.97527612879E+03  0.10566000000E+00 0.  1.
        994    1    1    2    0    0 -0.76653838716E+02  0.93710179856E+02  0.89425173663E+02  0.22795550110E+03  0.17120000000E+03 0.  0.
        998    1    1    2    0    0  0.39472933559E+02  0.99736524587E+02  0.45539972398E+03  0.46796837011E+03  0.10000000000E+02 0.  1.
</event>
<event>
 5    1  0.9130022E-009  0.3808649E+03  0.7957747E-01  0.3447401E+00
         13   -1    0    0    0    0  0.00000000000E+00  0.00000000000E+00  0.14999999963E+04  0.15000000000E+04  0.10566000000E+00 0.  1.
        994   -1    0    0    0    0 -0.00000000000E+00 -0.00000000000E+00  0.11368683772E-12  0.17120000000E+03  0.17120000000E+03 0.  0.
         13    1    1    2    0    0  0.21740965082E+02  0.20348416325E+01  0.61445191196E+02  0.65209913574E+02  0.10566000000E+00 0.  1.
        994    1    1    2    0    0 -0.20529500959E+02 -0.16287751859E+00  0.51034257059E+01  0.17250209243E+03  0.17120000000E+03 0.  0.
        998    1    1    2    0    0 -0.12114641227E+01 -0.18719641139E+01  0.14334513794E+04  0.14334879940E+04  0.10000000000E+02 0.  1.
</event>
<event>
 5    1  0.9130022E-009  0.3843026E+03  0.7957747E-01  0.3432635E+00
         13   -1    0    0    0    0  0.00000000000E+00  0.00000000000E+00  0.14999999963E+04  0.15000000000E+04  0.10566000000E+00 0.  1.
        994   -1    0    0    0    0 -0.00000000000E+00 -0.00000000000E+00  0.11368683772E-12  0.17120000000E+03  0.17120000000E+03 0.  0.
         13    1    1    2    0    0 -0.19064727511E+02 -0.14693699620E+02  0.13451584095E+03  0.13665244701E+03  0.10566000000E+00 0.  1.
        994    1    1    2    0    0  0.18802143592E+02  0.16257006069E+02  0.40157981650E+01  0.17304154844E+03  0.17120000000E+03 0.  0.
        998    1    1    2    0    0  0.26258391895E+00 -0.15633064487E+01  0.13614683572E+04  0.13615060046E+04  0.10000000000E+02 0.  1.
</event>
<event>
 5    1  0.9130022E-009  0.3825988E+03  0.7957747E-01  0.3439920E+00
         13   -1    0    0    0    0  0.00000000000E+00  0.00000000000E+00  0.14999999963E+04  0.15000000000E+04  0.10566000000E+00 0.  1.
        994   -1    0    0    0    0 -0.00000000000E+00 -0.00000000000E+00  0.11368683772E-12  0.17120000000E+03  0.17120000000E+03 0.  0.
         13    1    1    2    0    0  0.33766362325E+01 -0.11722015136E+02  0.24914179098E+02  0.27740490177E+02  0.10566000000E+00 0.  1.
        994    1    1    2    0    0 -0.93574483876E+01  0.10763368548E+02  0.35014790148E+01  0.17182872955E+03  0.17120000000E+03 0.  0.
        998    1    1    2    0    0  0.59808121550E+01  0.95864658811E+00  0.14715843382E+04  0.14716307803E+04  0.10000000000E+02 0.  1.
</event>
<event>
 5    1  0.9130022E-009  0.3723859E+03  0.7957747E-01  0.3484997E+00
         13   -1    0    0    0    0  0.00000000000E+00  0.00000000000E+00  0.14999999963E+04  0.15000000000E+04  0.10566000000E+00 0. -1.
        994   -1    0    0    0    0 -0.00000000000E+00 -0.00000000000E+00  0.11368683772E-12  0.17120000000E+03  0.17120000000E+03 0.  0.
         13    1    1    2    0    0  0.12351808969E+02  0.48173725694E+02  0.20245255170E+03  0.20847139345E+03  0.10566000000E+00 0. -1.
        994    1    1    2    0    0  0.40291041667E+01  0.20541554829E+02  0.95314571112E+01  0.17273817711E+03  0.17120000000E+03 0.  0.
        998    1    1    2    0    0 -0.16380913135E+02 -0.68715280523E+02  0.12880159875E+04  0.12899904294E+04  0.10000000000E+02 0. -1.
</event>
<event>
 5    1  0.9130022E-009  0.3727139E+03  0.7957747E-01  0.3483510E+00
         13   -1    0    0    0    0  0.00000000000E+00  0.00000000000E+00  0.14999999963E+04  0.15000000000E+04  0.10566000000E+00 0. -1.
        994   -1    0    0    0    0 -0.00000000000E+00 -0.00000000000E+00  0.11368683772E-12  0.17120000000E+03  0.17120000000E+03 0.  0.
         13    1    1    2    0    0 -0.21721762044E+02  0.28300150788E+02  0.84545828115E+02  0.91764599365E+02  0.10566000000E+00 0. -1.
        994    1    1    2    0    0 -0.10625993767E+02 -0.96598029277E+01  0.85641257278E+01  0.17201455690E+03  0.17120000000E+03 0.  0.
        998    1    1    2    0    0  0.32347755811E+02 -0.18640347860E+02  0.14068900424E+04  0.14074208437E+04  0.10000000000E+02 0. -1.
</event>
<event>
 5    1  0.9130022E-009  0.3810941E+03  0.7957747E-01  0.3446408E+00
         13   -1    0    0    0    0  0.00000000000E+00  0.00000000000E+00  0.14999999963E+04  0.15000000000E+04  0.10566000000E+00 0. -1.
        994   -1    0    0    0    0 -0.00000000000E+00 -0.00000000000E+00  0.11368683772E-12  0.17120000000E+03  0.17120000000E+03 0.  0.
         13    1    1    2    0    0 -0.53048295851E+01 -0.13377662752E+02  0.28784758497E+02  0.32181929144E+02  0.10566000000E+00 0. -1.
        994    1    1    2    0    0 -0.11017008101E+02 -0.30947307584E+00  0.39865653881E+01  0.17160070788E+03  0.17120000000E+03 0.  0.
        998    1    1    2    0    0  0.16321837686E+02  0.13687135828E+02  0.14672286724E+04  0.14674173630E+04  0.10000000000E+02 0. -1.
</event>
<event>
 5    1  0.9130022E-009  0.3825130E+03  0.7957747E-01  0.3440289E+00
         13   -1    0    0    0    0  0.00000000000E+00  0.00000000000E+00  0.14999999963E+04  0.15000000000E+04  0.10566000000E+00 0.  1.
        994   -1    0    0    0    0 -0.00000000000E+00 -0.00000000000E+00  0.11368683772E-12  0.17120000000E+03  0.17120000000E+03 0.  0.
         13    1    1    2    0    0  0.50629013822E+01  0.95192809872E+01  0.18979479310E+02  0.21828455736E+02  0.10566000000E+00 0.  1.
        994    1    1    2    0    0 -0.57419647593E+01 -0.87602422449E+01  0.32337601138E+01  0.17155060247E+03  0.17120000000E+03 0.  0.
        998    1    1    2    0    0  0.67906337703E+00 -0.75903874230E+00  0.14777867569E+04  0.14778209418E+04  0.10000000000E+02 0.  1.
</event>
<event>
 5    1  0.9130022E-009  0.3709284E+03  0.7957747E-01  0.3491635E+00
         13   -1    0    0    0    0  0.00000000000E+00  0.00000000000E+00  0.14999999963E+04  0.15000000000E+04  0.10566000000E+00 0.  1.
        994   -1    0    0    0    0 -0.00000000000E+00 -0.00000000000E+00  0.11368683772E-12  0.17120000000E+03  0.17120000000E+03 0.  0.
         13    1    1    2    0    0 -0.26445281292E+02 -0.47579781285E+02  0.20136319261E+03  0.20859131092E+03  0.10566000000E+00 0.  1.
        994    1    1    2    0    0  0.16201450020E+01 -0.47933433788E+01  0.88728795109E+01  0.17150442852E+03  0.17120000000E+03 0.  0.
        998    1    1    2    0    0  0.24825136290E+02  0.52373124663E+02  0.12897639242E+04  0.12911042606E+04  0.10000000000E+02 0.  1.
</event>
<event>
 5    1  0.9130022E-009  0.3852853E+03  0.7957747E-01  0.3428463E+00
         13   -1    0    0    0    0  0.00000000000E+00  0.00000000000E+00  0.14999999963E+04  0.15000000000E+04  0.10566000000E+00 0.  1.
        994   -1    0    0    0    0 -0.00000000000E+00 -0.00000000000E+00  0.11368683772E-12  0.17120000000E+03  0.17120000000E+03 0.  0.
         13    1    1    2    0    0 -0.11131419752E+02 -0.67240061114E+01  0.54605697364E+02  0.56133003773E+02  0.10566000000E+00 0.  1.
        994    1    1    2    0    0  0.17796506105E+02  0.91096584991E+00  0.25326022611E+01  0.17214354348E+03  0.17120000000E+03 0.  0.
        998    1    1    2    0    0 -0.66650863531E+01  0.58130402615E+01  0.14428616967E+04  0.14429234527E+04  0.10000000000E+02 0.  1.
</event>
<event>
 5    1  0.9130022E-009  0.3852880E+03  0.7957747E-01  0.3428452E+00
         13   -1    0    0    0    0  0.00000000000E+00  0.00000000000E+00  0.14999999963E+04  0.15000000000E+04  0.10566000000E+00 0. -1.
        994   -1    0    0    0    0 -0.00000000000E+00 -0.00000000000E+00  0.11368683772E-12  0.17120000000E+03  0.17120000000E+03 0.  0.
         13    1    1    2    0    0  0.42768081449E+01 -0.10412399036E+02  0.43446187913E+02  0.44880859503E+02  0.10566000000E+00 0. -1.
        994    1    1    2    0    0 -0.11814732824E+02 -0.26986918704E+00  0.19462323722E+01  0.17161843887E+03  0.17120000000E+03 0.  0.
        998    1    1    2    0    0  0.75379246794E+01  0.10682268223E+02  0.14546075760E+04  0.14547007016E+04  0.10000000000E+02 0. -1.
</event>
<event>
 5    1  0.9130022E-009  0.3777400E+03  0.7957747E-01  0.3461059E+00
         13   -1    0    0    0    0  0.00000000000E+00  0.00000000000E+00  0.14999999963E+04  0.15000000000E+04  0.10566000000E+00 0. -1.
        994   -1    0    0    0    0 -0.00000000000E+00 -0.00000000000E+00  0.11368683772E-12  0.17120000000E+03  0.17120000000E+03 0.  0.
         13    1    1    2    0    0 -0.28547362744E+02 -0.58828715255E+02  0.35952770316E+03  0.36542571087E+03  0.10566000000E+00 0. -1.
        994    1    1    2    0    0  0.79133315539E+01  0.51875582048E+02  0.14609786374E+02  0.17965684704E+03  0.17120000000E+03 0.  0.
        998    1    1    2    0    0  0.20634031190E+02  0.69531332070E+01  0.11258625067E+04  0.11261174421E+04  0.10000000000E+02 0. -1.
</event>
<event>
 5    1  0.9130022E-009  0.3774693E+03  0.7957747E-01  0.3462252E+00
         13   -1    0    0    0    0  0.00000000000E+00  0.00000000000E+00  0.14999999963E+04  0.15000000000E+04  0.10566000000E+00 0.  1.
        994   -1    0    0    0    0 -0.00000000000E+00 -0.00000000000E+00  0.11368683772E-12  0.17120000000E+03  0.17120000000E+03 0.  0.
         13    1    1    2    0    0  0.79706951476E+01  0.20274676182E+03  0.11087809130E+04  0.11271933755E+04  0.10566000000E+00 0.  1.
        994    1    1    2    0    0 -0.19429312197E+02 -0.19023029173E+03  0.14066446883E+03  0.29267899627E+03  0.17120000000E+03 0.  0.
        998    1    1    2    0    0  0.11458617050E+02 -0.12516470090E+02  0.25055461441E+03  0.25132762827E+03  0.10000000000E+02 0.  1.
</event>
<event>
 5    1  0.9130022E-009  0.3737173E+03  0.7957747E-01  0.3478979E+00
         13   -1    0    0    0    0  0.00000000000E+00  0.00000000000E+00  0.14999999963E+04  0.15000000000E+04  0.10566000000E+00 0.  1.
        994   -1    0    0    0    0 -0.00000000000E+00 -0.00000000000E+00  0.11368683772E-12  0.17120000000E+03  0.17120000000E+03 0.  0.
         13    1    1    2    0    0  0.78985536654E+02  0.66503523267E+02  0.46104686192E+03  0.47246762181E+03  0.10566000000E+00 0.  1.
        994    1    1    2    0    0 -0.37138736558E+02 -0.25183664387E+02  0.20084408666E+02  0.17811885407E+03  0.17120000000E+03 0.  0.
        998    1    1    2    0    0 -0.41846800096E+02 -0.41319858880E+02  0.10188687257E+04  0.10206135241E+04  0.10000000000E+02 0.  1.
</event>
<event>
 5    1  0.9130022E-009  0.3856853E+03  0.7957747E-01  0.3426771E+00
         13   -1    0    0    0    0  0.00000000000E+00  0.00000000000E+00  0.14999999963E+04  0.15000000000E+04  0.10566000000E+00 0. -1.
        994   -1    0    0    0    0 -0.00000000000E+00 -0.00000000000E+00  0.11368683772E-12  0.17120000000E+03  0.17120000000E+03 0.  0.
         13    1    1    2    0    0 -0.87905520159E+01 -0.13264760032E+02  0.95360925632E+02  0.96679599528E+02  0.10566000000E+00 0. -1.
        994    1    1    2    0    0  0.99361319621E+01  0.10700042354E+02  0.19902419675E+01  0.17183311290E+03  0.17120000000E+03 0.  0.
        998    1    1    2    0    0 -0.11455799462E+01  0.25647176779E+01  0.14026488287E+04  0.14026872876E+04  0.10000000000E+02 0. -1.
</event>
<event>
 5    1  0.9130022E-009  0.3855860E+03  0.7957747E-01  0.3427191E+00
         13   -1    0    0    0    0  0.00000000000E+00  0.00000000000E+00  0.14999999963E+04  0.15000000000E+04  0.10566000000E+00 0.  1.
        994   -1    0    0    0    0 -0.00000000000E+00 -0.00000000000E+00  0.11368683772E-12  0.17120000000E+03  0.17120000000E+03 0.  0.
         13    1    1    2    0    0 -0.10346305534E+02  0.35296682577E+01  0.43308266448E+02  0.44666785232E+02  0.10566000000E+00 0.  1.
        994    1    1    2    0    0  0.15089992992E+02  0.24283280912E+01  0.21066371163E+01  0.17189381195E+03  0.17120000000E+03 0.  0.
        998    1    1    2    0    0 -0.47436874574E+01 -0.59579963490E+01  0.14545850927E+04  0.14546394028E+04  0.10000000000E+02 0.  1.
</event>
<event>
 5    1  0.9130022E-009  0.3855663E+03  0.7957747E-01  0.3427274E+00
         13   -1    0    0    0    0  0.00000000000E+00  0.00000000000E+00  0.14999999963E+04  0.15000000000E+04  0.10566000000E+00 0.  1.
        994   -1    0    0    0    0 -0.00000000000E+00 -0.00000000000E+00  0.11368683772E-12  0.17120000000E+03  0.17120000000E+03 0.  0.
         13    1    1    2    0    0 -0.76255500778E+00  0.22913064277E+02  0.12611157584E+03  0.12817851118E+03  0.10566000000E+00 0.  1.
        994    1    1    2    0    0  0.14832007806E+02 -0.63195558110E+02  0.15305361870E+02  0.18373176405E+03  0.17120000000E+03 0.  0.
        998    1    1    2    0    0 -0.14069452798E+02  0.40282493833E+02  0.13585830586E+04  0.13592897248E+04  0.10000000000E+02 0.  1.
</event>
<event>
 5    1  0.9130022E-009  0.3830936E+03  0.7957747E-01  0.3437798E+00
         13   -1    0    0    0    0  0.00000000000E+00  0.00000000000E+00  0.14999999963E+04  0.15000000000E+04  0.10566000000E+00 0. -1.
        994   -1    0    0    0    0 -0.00000000000E+00 -0.00000000000E+00  0.11368683772E-12  0.17120000000E+03  0.17120000000E+03 0.  0.
         13    1    1    2    0    0  0.79500556387E+01  0.91791336649E+01  0.30478209171E+02  0.32808417789E+02  0.10566000000E+00 0. -1.
        994    1    1    2    0    0  0.19414805529E+02  0.63037653838E+01  0.39596200504E+01  0.17245808396E+03  0.17120000000E+03 0.  0.
        998    1    1    2    0    0 -0.27364861168E+02 -0.15482899049E+02  0.14655621671E+04  0.14659334983E+04  0.10000000000E+02 0. -1.
</event>
<event>
 5    1  0.9130022E-009  0.3846376E+03  0.7957747E-01  0.3431211E+00
         13   -1    0    0    0    0  0.00000000000E+00  0.00000000000E+00  0.14999999963E+04  0.15000000000E+04  0.10566000000E+00 0.  1.
        994   -1    0    0    0    0 -0.00000000000E+00 -0.00000000000E+00  0.11368683772E-12  0.17120000000E+03  0.17120000000E+03 0.  0.
         13    1    1    2    0    0 -0.12753229621E+02 -0.25616230363E+01  0.44207588789E+02  0.46081762650E+02  0.10566000000E+00 0.  1.
        994    1    1    2    0    0  0.16224839075E+02  0.15354694807E+02  0.34548963023E+01  0.17268580823E+03  0.17120000000E+03 0.  0.
        998    1    1    2    0    0 -0.34716094535E+01 -0.12793071770E+02  0.14523375112E+04  0.14524324291E+04  0.10000000000E+02 0.  1.
</event>
<event>
 5    1  0.9130022E-009  0.3737537E+03  0.7957747E-01  0.3478815E+00
         13   -1    0    0    0    0  0.00000000000E+00  0.00000000000E+00  0.14999999963E+04  0.15000000000E+04  0.10566000000E+00 0.  1.
        994   -1    0    0    0    0 -0.00000000000E+00 -0.00000000000E+00  0.11368683772E-12  0.17120000000E+03  0.17120000000E+03 0.  0.
         13    1    1    2    0    0 -0.52101815161E+02  0.26898642498E+02  0.26040803016E+03  0.26692787312E+03  0.10566000000E+00 0.  1.
        994    1    1    2    0    0  0.19270220222E+02  0.80178321964E-01  0.85887535275E+01  0.17249508545E+03  0.17120000000E+03 0.  0.
        998    1    1    2    0    0  0.32831594939E+02 -0.26978820820E+02  0.12310032126E+04  0.12317770414E+04  0.10000000000E+02 0.  1.
</event>
<event>
 5    1  0.9130022E-009  0.3849921E+03  0.7957747E-01  0.3429706E+00
         13   -1    0    0    0    0  0.00000000000E+00  0.00000000000E+00  0.14999999963E+04  0.15000000000E+04  0.10566000000E+00 0. -1.
        994   -1    0    0    0    0 -0.00000000000E+00 -0.00000000000E+00  0.11368683772E-12  0.17120000000E+03  0.17120000000E+03 0.  0.
         13    1    1    2    0    0  0.34905654810E+01 -0.13416081555E+02  0.57618010954E+02  0.59262312155E+02  0.10566000000E+00 0. -1.
        994    1    1    2    0    0 -0.24115356567E+01  0.12369983786E+02  0.21565957693E+01  0.17167679782E+03  0.17120000000E+03 0.  0.
        998    1    1    2    0    0 -0.10790298243E+01  0.10460977685E+01  0.14402253896E+04  0.14402608900E+04  0.10000000000E+02 0. -1.
</event>
<event>
 5    1  0.9130022E-009  0.3718665E+03  0.7957747E-01  0.3487356E+00
         13   -1    0    0    0    0  0.00000000000E+00  0.00000000000E+00  0.14999999963E+04  0.15000000000E+04  0.10566000000E+00 0. -1.
        994   -1    0    0    0    0 -0.00000000000E+00 -0.00000000000E+00  0.11368683772E-12  0.17120000000E+03  0.17120000000E+03 0.  0.
         13    1    1    2    0    0  0.24276293815E+02  0.30188428710E+02  0.58499783621E+02  0.70163491341E+02  0.10566000000E+00 0. -1.
        994    1    1    2    0    0 -0.65096408435E+01 -0.27929345983E+02  0.14828706432E+02  0.17421754884E+03  0.17120000000E+03 0.  0.
        998    1    1    2    0    0 -0.17766652972E+02 -0.22590827268E+01  0.14266715062E+04  0.14268189598E+04  0.10000000000E+02 0. -1.
</event>
<event>
 5    1  0.9130022E-009  0.3784298E+03  0.7957747E-01  0.3458024E+00
         13   -1    0    0    0    0  0.00000000000E+00  0.00000000000E+00  0.14999999963E+04  0.15000000000E+04  0.10566000000E+00 0. -1.
        994   -1    0    0    0    0 -0.00000000000E+00 -0.00000000000E+00  0.11368683772E-12  0.17120000000E+03  0.17120000000E+03 0.  0.
         13    1    1    2    0    0  0.72409725783E+01 -0.15482709063E+02  0.26577857265E+02  0.31599677603E+02  0.10566000000E+00 0. -1.
        994    1    1    2    0    0  0.13545974943E+02  0.34110605671E+02  0.94677035861E+01  0.17534567080E+03  0.17120000000E+03 0.  0.
        998    1    1    2    0    0 -0.20786947522E+02 -0.18627896607E+02  0.14639544354E+04  0.14642546516E+04  0.10000000000E+02 0. -1.
</event>
<event>
 5    1  0.9130022E-009  0.3815554E+03  0.7957747E-01  0.3444414E+00
         13   -1    0    0    0    0  0.00000000000E+00  0.00000000000E+00  0.14999999963E+04  0.15000000000E+04  0.10566000000E+00 0.  1.
        994   -1    0    0    0    0 -0.00000000000E+00 -0.00000000000E+00  0.11368683772E-12  0.17120000000E+03  0.17120000000E+03 0.  0.
         13    1    1    2    0    0  0.97327831315E+02 -0.15173837506E+03  0.10323970313E+04  0.10480175965E+04  0.10566000000E+00 0.  1.
        994    1    1    2    0    0 -0.92181602717E+02  0.15967891179E+03  0.12615913229E+03  0.28146113304E+03  0.17120000000E+03 0.  0.
        998    1    1    2    0    0 -0.51462285978E+01 -0.79405367291E+01  0.34144383271E+03  0.34172127047E+03  0.10000000000E+02 0.  0.
</event>
<event>
 5    1  0.9130022E-009  0.3807649E+03  0.7957747E-01  0.3447835E+00
         13   -1    0    0    0    0  0.00000000000E+00  0.00000000000E+00  0.14999999963E+04  0.15000000000E+04  0.10566000000E+00 0. -1.
        994   -1    0    0    0    0 -0.00000000000E+00 -0.00000000000E+00  0.11368683772E-12  0.17120000000E+03  0.17120000000E+03 0.  0.
         13    1    1    2    0    0  0.91913933328E+02 -0.71884637016E+02  0.64201461005E+03  0.65253225427E+03  0.10566000000E+00 0. -1.
        994    1    1    2    0    0 -0.10857818255E+03  0.93390131539E+02  0.75474198136E+02  0.23561989088E+03  0.17120000000E+03 0.  0.
        998    1    1    2    0    0  0.16664249221E+02 -0.21505494523E+02  0.78251118809E+03  0.78304785485E+03  0.10000000000E+02 0. -1.
</event>
<event>
 5    1  0.9130022E-009  0.3783141E+03  0.7957747E-01  0.3458532E+00
         13   -1    0    0    0    0  0.00000000000E+00  0.00000000000E+00  0.14999999963E+04  0.15000000000E+04  0.10566000000E+00 0. -1.
        994   -1    0    0    0    0 -0.00000000000E+00 -0.00000000000E+00  0.11368683772E-12  0.17120000000E+03  0.17120000000E+03 0.  0.
         13    1    1    2    0    0 -0.25407184764E+02 -0.25967517330E+02  0.11128703625E+03  0.11706687232E+03  0.10566000000E+00 0. -1.
        994    1    1    2    0    0  0.25261539883E+02  0.51403513945E+02  0.16094699010E+02  0.18124278187E+03  0.17120000000E+03 0.  0.
        998    1    1    2    0    0  0.14564488157E+00 -0.25435996615E+02  0.13726182610E+04  0.13728903458E+04  0.10000000000E+02 0. -1.
</event>
<event>
 5    1  0.9130022E-009  0.3813125E+03  0.7957747E-01  0.3445464E+00
         13   -1    0    0    0    0  0.00000000000E+00  0.00000000000E+00  0.14999999963E+04  0.15000000000E+04  0.10566000000E+00 0. -1.
        994   -1    0    0    0    0 -0.00000000000E+00 -0.00000000000E+00  0.11368683772E-12  0.17120000000E+03  0.17120000000E+03 0.  0.
         13    1    1    2    0    0 -0.13636183992E+02 -0.94002710355E+01  0.36681904387E+02  0.40247781092E+02  0.10566000000E+00 0. -1.
        994    1    1    2    0    0  0.18071400477E+02  0.13827443491E+02  0.51973857731E+01  0.17278375655E+03  0.17120000000E+03 0.  0.
        998    1    1    2    0    0 -0.44352164851E+01 -0.44271724551E+01  0.14581207061E+04  0.14581684624E+04  0.10000000000E+02 0. -1.
</event>
<event>
 5    1  0.9130022E-009  0.3829820E+03  0.7957747E-01  0.3438276E+00
         13   -1    0    0    0    0  0.00000000000E+00  0.00000000000E+00  0.14999999963E+04  0.15000000000E+04  0.10566000000E+00 0.  1.
        994   -1    0    0    0    0 -0.00000000000E+00 -0.00000000000E+00  0.11368683772E-12  0.17120000000E+03  0.17120000000E+03 0.  0.
         13    1    1    2    0    0  0.11658649182E+02  0.29864904329E+02  0.18531442113E+03  0.18806722855E+03  0.10566000000E+00 0.  1.
        994    1    1    2    0    0 -0.12896637239E+02 -0.21011028396E+02  0.46499346215E+01  0.17302846141E+03  0.17120000000E+03 0.  0.
        998    1    1    2    0    0  0.12379880577E+01 -0.88538759324E+01  0.13100356405E+04  0.13101043100E+04  0.10000000000E+02 0.  1.
</event>
<event>
 5    1  0.9130022E-009  0.3848437E+03  0.7957747E-01  0.3430336E+00
         13   -1    0    0    0    0  0.00000000000E+00  0.00000000000E+00  0.14999999963E+04  0.15000000000E+04  0.10566000000E+00 0. -1.
        994   -1    0    0    0    0 -0.00000000000E+00 -0.00000000000E+00  0.11368683772E-12  0.17120000000E+03  0.17120000000E+03 0.  0.
         13    1    1    2    0    0  0.17947426421E+02 -0.32523533297E+01  0.98456257534E+02  0.10013158208E+03  0.10566000000E+00 0. -1.
        994    1    1    2    0    0 -0.10466207013E+02 -0.58803916493E+00  0.20694286377E+01  0.17153311579E+03  0.17120000000E+03 0.  0.
        998    1    1    2    0    0 -0.74812194079E+01  0.38403924946E+01  0.13994743101E+04  0.13995353021E+04  0.10000000000E+02 0. -1.
</event>
<event>
 5    1  0.9130022E-009  0.3823201E+03  0.7957747E-01  0.3441118E+00
         13   -1    0    0    0    0  0.00000000000E+00  0.00000000000E+00  0.14999999963E+04  0.15000000000E+04  0.10566000000E+00 0.  1.
        994   -1    0    0    0    0 -0.00000000000E+00 -0.00000000000E+00  0.11368683772E-12  0.17120000000E+03  0.17120000000E+03 0.  0.
         13    1    1    2    0    0  0.20790046579E+02 -0.24499527798E+02  0.18044960153E+03  0.18328808678E+03  0.10566000000E+00 0.  1.
        994    1    1    2    0    0  0.31985585766E+01  0.21331278597E+02  0.45115121956E+01  0.17261242124E+03  0.17120000000E+03 0.  0.
        998    1    1    2    0    0 -0.23988605156E+02  0.31682492006E+01  0.13150388826E+04  0.13152994920E+04  0.10000000000E+02 0.  1.
</event>
<event>
 5    1  0.9130022E-009  0.3799886E+03  0.7957747E-01  0.3451208E+00
         13   -1    0    0    0    0  0.00000000000E+00  0.00000000000E+00  0.14999999963E+04  0.15000000000E+04  0.10566000000E+00 0. -1.
        994   -1    0    0    0    0 -0.00000000000E+00 -0.00000000000E+00  0.11368683772E-12  0.17120000000E+03  0.17120000000E+03 0.  0.
         13    1    1    2    0    0 -0.14635136056E+02  0.20768293766E+02  0.86591852739E+02  0.90242281432E+02  0.10566000000E+00 0. -1.
        994    1    1    2    0    0 -0.73899685088E+01  0.65131152932E+01  0.44633409721E+01  0.17154123037E+03  0.17120000000E+03 0.  0.
        998    1    1    2    0    0  0.22025104564E+02 -0.27281409059E+02  0.14089448026E+04  0.14094164882E+04  0.10000000000E+02 0. -1.
</event>
<event>
 5    1  0.9130022E-009  0.3795925E+03  0.7957747E-01  0.3452935E+00
         13   -1    0    0    0    0  0.00000000000E+00  0.00000000000E+00  0.14999999963E+04  0.15000000000E+04  0.10566000000E+00 0. -1.
        994   -1    0    0    0    0 -0.00000000000E+00 -0.00000000000E+00  0.11368683772E-12  0.17120000000E+03  0.17120000000E+03 0.  0.
         13    1    1    2    0    0 -0.18030680451E+02  0.11419596742E+02  0.50724026157E+02  0.55031360340E+02  0.10566000000E+00 0. -1.
        994    1    1    2    0    0  0.16745488736E+02 -0.94103501273E+00  0.52811790598E+01  0.17210063275E+03  0.17120000000E+03 0.  0.
        998    1    1    2    0    0  0.12851917152E+01 -0.10478561729E+02  0.14439947911E+04  0.14440680069E+04  0.10000000000E+02 0. -1.
</event>
<event>
 5    1  0.9130022E-009  0.3854428E+03  0.7957747E-01  0.3427797E+00
         13   -1    0    0    0    0  0.00000000000E+00  0.00000000000E+00  0.14999999963E+04  0.15000000000E+04  0.10566000000E+00 0. -1.
        994   -1    0    0    0    0 -0.00000000000E+00 -0.00000000000E+00  0.11368683772E-12  0.17120000000E+03  0.17120000000E+03 0.  0.
         13    1    1    2    0    0  0.29342239555E+01 -0.10752470986E+02  0.43148482076E+02  0.44564873747E+02  0.10566000000E+00 0. -1.
        994    1    1    2    0    0 -0.64312771615E+01  0.10403297761E+02  0.19018646676E+01  0.17164686720E+03  0.17120000000E+03 0.  0.
        998    1    1    2    0    0  0.34970532059E+01  0.34917322478E+00  0.14549496495E+04  0.14549882591E+04  0.10000000000E+02 0. -1.
</event>
<event>
 5    1  0.9130022E-009  0.3796470E+03  0.7957747E-01  0.3452697E+00
         13   -1    0    0    0    0  0.00000000000E+00  0.00000000000E+00  0.14999999963E+04  0.15000000000E+04  0.10566000000E+00 0.  1.
        994   -1    0    0    0    0 -0.00000000000E+00 -0.00000000000E+00  0.11368683772E-12  0.17120000000E+03  0.17120000000E+03 0.  0.
         13    1    1    2    0    0 -0.18037866148E+02 -0.26013609310E+02  0.11235606687E+03  0.11673032773E+03  0.10566000000E+00 0.  1.
        994    1    1    2    0    0  0.88878284348E+01  0.21787232925E+02  0.61666910562E+01  0.17291947574E+03  0.17120000000E+03 0.  0.
        998    1    1    2    0    0  0.91500377134E+01  0.42263763851E+01  0.13814772384E+04  0.13815501965E+04  0.10000000000E+02 0.  1.
</event>
<event>
 5    1  0.9130022E-009  0.3840194E+03  0.7957747E-01  0.3433841E+00
         13   -1    0    0    0    0  0.00000000000E+00  0.00000000000E+00  0.14999999963E+04  0.15000000000E+04  0.10566000000E+00 0.  1.
        994   -1    0    0    0    0 -0.00000000000E+00 -0.00000000000E+00  0.11368683772E-12  0.17120000000E+03  0.17120000000E+03 0.  0.
         13    1    1    2    0    0  0.89645614885E+01 -0.12332998957E+02  0.55788602624E+02  0.57834639903E+02  0.10566000000E+00 0.  1.
        994    1    1    2    0    0 -0.85896473781E+01  0.45768598155E+00  0.23618927597E+01  0.17143223167E+03  0.17120000000E+03 0.  0.
        998    1    1    2    0    0 -0.37491411047E+00  0.11875312976E+02  0.14418495009E+04  0.14419331284E+04  0.10000000000E+02 0.  1.
</event>
<event>
 5    1  0.9130022E-009  0.3848585E+03  0.7957747E-01  0.3430273E+00
         13   -1    0    0    0    0  0.00000000000E+00  0.00000000000E+00  0.14999999963E+04  0.15000000000E+04  0.10566000000E+00 0. -1.
        994   -1    0    0    0    0 -0.00000000000E+00 -0.00000000000E+00  0.11368683772E-12  0.17120000000E+03  0.17120000000E+03 0.  0.
         13    1    1    2    0    0 -0.50354929752E+01  0.11764790038E+02  0.46771995154E+02  0.48491207129E+02  0.10566000000E+00 0. -1.
        994    1    1    2    0    0  0.42866766718E+01 -0.12903819142E+02  0.23089462050E+01  0.17175463714E+03  0.17120000000E+03 0.  0.
        998    1    1    2    0    0  0.74881630344E+00  0.11390291040E+01  0.14509190549E+04  0.14509541557E+04  0.10000000000E+02 0. -1.
</event>
<event>
 5    1  0.9130022E-009  0.3762302E+03  0.7957747E-01  0.3467739E+00
         13   -1    0    0    0    0  0.00000000000E+00  0.00000000000E+00  0.14999999963E+04  0.15000000000E+04  0.10566000000E+00 0. -1.
        994   -1    0    0    0    0 -0.00000000000E+00 -0.00000000000E+00  0.11368683772E-12  0.17120000000E+03  0.17120000000E+03 0.  0.
         13    1    1    2    0    0  0.10457243428E+02 -0.88453027404E+01  0.13355561583E+02  0.19130486400E+02  0.10566000000E+00 0. -1.
        994    1    1    2    0    0  0.10098500618E+02  0.15640269108E+00  0.63937051528E+01  0.17161679301E+03  0.17120000000E+03 0.  0.
        998    1    1    2    0    0 -0.20555744046E+02  0.86889000493E+01  0.14802507295E+04  0.14804527206E+04  0.10000000000E+02 0. -1.
</event>
<event>
 5    1  0.9130022E-009  0.3830045E+03  0.7957747E-01  0.3438180E+00
         13   -1    0    0    0    0  0.00000000000E+00  0.00000000000E+00  0.14999999963E+04  0.15000000000E+04  0.10566000000E+00 0.  1.
        994   -1    0    0    0    0 -0.00000000000E+00 -0.00000000000E+00  0.11368683772E-12  0.17120000000E+03  0.17120000000E+03 0.  0.
         13    1    1    2    0    0 -0.35055414966E+01 -0.12857433094E+02  0.32854962180E+02  0.35455071723E+02  0.10566000000E+00 0.  1.
        994    1    1    2    0    0  0.64847649359E+00  0.10198908005E+02  0.29699150984E+01  0.17153045981E+03  0.17120000000E+03 0.  0.
        998    1    1    2    0    0  0.28570650030E+01  0.26585250892E+01  0.14641751190E+04  0.14642144685E+04  0.10000000000E+02 0.  1.
</event>
<event>
 5    1  0.9130022E-009  0.3777436E+03  0.7957747E-01  0.3461043E+00
         13   -1    0    0    0    0  0.00000000000E+00  0.00000000000E+00  0.14999999963E+04  0.15000000000E+04  0.10566000000E+00 0.  1.
        994   -1    0    0    0    0 -0.00000000000E+00 -0.00000000000E+00  0.11368683772E-12  0.17120000000E+03  0.17120000000E+03 0.  0.
         13    1    1    2    0    0  0.64336884505E+01 -0.13879160519E+02  0.20178314707E+02  0.25321907358E+02  0.10566000000E+00 0.  1.
        994    1    1    2    0    0  0.31953006211E+01  0.79821572045E+01  0.55255395222E+01  0.17150479984E+03  0.17120000000E+03 0.  0.
        998    1    1    2    0    0 -0.96289890716E+01  0.58970033146E+01  0.14742961420E+04  0.14743732928E+04  0.10000000000E+02 0.  1.
</event>
<event>
 5    1  0.9130022E-009  0.3796971E+03  0.7957747E-01  0.3452479E+00
         13   -1    0    0    0    0  0.00000000000E+00  0.00000000000E+00  0.14999999963E+04  0.15000000000E+04  0.10566000000E+00 0. -1.
        994   -1    0    0    0    0 -0.00000000000E+00 -0.00000000000E+00  0.11368683772E-12  0.17120000000E+03  0.17120000000E+03 0.  0.
         13    1    1    2    0    0  0.48498571958E+01  0.93025956590E+01  0.10976297193E+02  0.15183861990E+02  0.10566000000E+00 0. -1.
        994    1    1    2    0    0 -0.38012103751E+00 -0.70631988583E+01  0.44535894859E+01  0.17140393149E+03  0.17120000000E+03 0.  0.
        998    1    1    2    0    0 -0.44697361583E+01 -0.22393968007E+01  0.14845701096E+04  0.14846122065E+04  0.10000000000E+02 0. -1.
</event>
<event>
 5    1  0.9130022E-009  0.3827570E+03  0.7957747E-01  0.3439241E+00
         13   -1    0    0    0    0  0.00000000000E+00  0.00000000000E+00  0.14999999963E+04  0.15000000000E+04  0.10566000000E+00 0.  1.
        994   -1    0    0    0    0 -0.00000000000E+00 -0.00000000000E+00  0.11368683772E-12  0.17120000000E+03  0.17120000000E+03 0.  0.
         13    1    1    2    0    0 -0.12968321911E+02 -0.13966707658E+02  0.62376333097E+02  0.65223189057E+02  0.10566000000E+00 0.  1.
        994    1    1    2    0    0  0.13859998724E+02  0.16577122632E+02  0.42960840197E+01  0.17261169398E+03  0.17120000000E+03 0.  0.
        998    1    1    2    0    0 -0.89167681305E+00 -0.26104149743E+01  0.14333275792E+04  0.14333651170E+04  0.10000000000E+02 0.  1.
</event>
<event>
 5    1  0.9130022E-009  0.3809163E+03  0.7957747E-01  0.3447178E+00
         13   -1    0    0    0    0  0.00000000000E+00  0.00000000000E+00  0.14999999963E+04  0.15000000000E+04  0.10566000000E+00 0.  1.
        994   -1    0    0    0    0 -0.00000000000E+00 -0.00000000000E+00  0.11368683772E-12  0.17120000000E+03  0.17120000000E+03 0.  0.
         13    1    1    2    0    0 -0.19609775077E+02 -0.25265513242E+01  0.50962508974E+02  0.54663655431E+02  0.10566000000E+00 0.  1.
        994    1    1    2    0    0  0.17893001235E+02 -0.13331332680E+01  0.47449924331E+01  0.17220305366E+03  0.17120000000E+03 0.  0.
        998    1    1    2    0    0  0.17167738415E+01  0.38596845921E+01  0.14442924949E+04  0.14443332909E+04  0.10000000000E+02 0.  1.
</event>
<event>
 5    1  0.9130022E-009  0.3789359E+03  0.7957747E-01  0.3455805E+00
         13   -1    0    0    0    0  0.00000000000E+00  0.00000000000E+00  0.14999999963E+04  0.15000000000E+04  0.10566000000E+00 0. -1.
        994   -1    0    0    0    0 -0.00000000000E+00 -0.00000000000E+00  0.11368683772E-12  0.17120000000E+03  0.17120000000E+03 0.  0.
         13    1    1    2    0    0  0.87636747499E+01 -0.63823172780E+01  0.10405991457E+02  0.15027700796E+02  0.10566000000E+00 0. -1.
        994    1    1    2    0    0 -0.91592360274E+01  0.75367550974E+01  0.51433625342E+01  0.17168747322E+03  0.17120000000E+03 0.  0.
        998    1    1    2    0    0  0.39556127751E+00 -0.11544378194E+01  0.14844506423E+04  0.14844848260E+04  0.10000000000E+02 0. -1.
</event>
<event>
 5    1  0.9130022E-009  0.3797841E+03  0.7957747E-01  0.3452099E+00
         13   -1    0    0    0    0  0.00000000000E+00  0.00000000000E+00  0.14999999963E+04  0.15000000000E+04  0.10566000000E+00 0. -1.
        994   -1    0    0    0    0 -0.00000000000E+00 -0.00000000000E+00  0.11368683772E-12  0.17120000000E+03  0.17120000000E+03 0.  0.
         13    1    1    2    0    0 -0.17705961901E+02 -0.16056530064E+02  0.61445781868E+02  0.65931089161E+02  0.10566000000E+00 0. -1.
        994    1    1    2    0    0  0.22160479894E+02  0.23369607444E+02  0.77197794783E+01  0.17437390979E+03  0.17120000000E+03 0.  0.
        998    1    1    2    0    0 -0.44545179932E+01 -0.73130773795E+01  0.14308344349E+04  0.14308950010E+04  0.10000000000E+02 0. -1.
</event>
<event>
 5    1  0.9130022E-009  0.3733766E+03  0.7957747E-01  0.3480515E+00
         13   -1    0    0    0    0  0.00000000000E+00  0.00000000000E+00  0.14999999963E+04  0.15000000000E+04  0.10566000000E+00 0. -1.
        994   -1    0    0    0    0 -0.00000000000E+00 -0.00000000000E+00  0.11368683772E-12  0.17120000000E+03  0.17120000000E+03 0.  0.
         13    1    1    2    0    0  0.27616291805E+01  0.21671963749E+02  0.28255206698E+02  0.35716501481E+02  0.10566000000E+00 0. -1.
        994    1    1    2    0    0 -0.36728341773E+01 -0.20124942282E+02  0.89464565411E+01  0.17264988299E+03  0.17120000000E+03 0.  0.
        998    1    1    2    0    0  0.91120499685E+00 -0.15470214668E+01  0.14627983330E+04  0.14628336155E+04  0.10000000000E+02 0. -1.
</event>
<event>
 5    1  0.9130022E-009  0.3792476E+03  0.7957747E-01  0.3454441E+00
         13   -1    0    0    0    0  0.00000000000E+00  0.00000000000E+00  0.14999999963E+04  0.15000000000E+04  0.10566000000E+00 0. -1.
        994   -1    0    0    0    0 -0.00000000000E+00 -0.00000000000E+00  0.11368683772E-12  0.17120000000E+03  0.17120000000E+03 0.  0.
         13    1    1    2    0    0  0.15905934087E+02  0.17753020851E+02  0.62097728662E+02  0.66515468558E+02  0.10566000000E+00 0. -1.
        994    1    1    2    0    0  0.11463334914E+01 -0.17052095982E+02  0.54929150826E+01  0.17213860745E+03  0.17120000000E+03 0.  0.
        998    1    1    2    0    0 -0.17052267579E+02 -0.70092486837E+00  0.14324093525E+04  0.14325459240E+04  0.10000000000E+02 0. -1.
</event>
<event>
 5    1  0.9130022E-009  0.3814797E+03  0.7957747E-01  0.3444741E+00
         13   -1    0    0    0    0  0.00000000000E+00  0.00000000000E+00  0.14999999963E+04  0.15000000000E+04  0.10566000000E+00 0. -1.
        994   -1    0    0    0    0 -0.00000000000E+00 -0.00000000000E+00  0.11368683772E-12  0.17120000000E+03  0.17120000000E+03 0.  0.
         13    1    1    2    0    0 -0.12347871633E+02  0.40947937752E+01  0.24072444542E+02  0.27362949772E+02  0.10566000000E+00 0. -1.
        994    1    1    2    0    0  0.10310513197E+01 -0.67192517301E+01  0.35418014854E+01  0.17137151388E+03  0.17120000000E+03 0.  0.
        998    1    1    2    0    0  0.11316820313E+02  0.26244579549E+01  0.14723857503E+04  0.14724655364E+04  0.10000000000E+02 0. -1.
</event>
<event>
 5    1  0.9130022E-009  0.3765146E+03  0.7957747E-01  0.3466477E+00
         13   -1    0    0    0    0  0.00000000000E+00  0.00000000000E+00  0.14999999963E+04  0.15000000000E+04  0.10566000000E+00 0.  1.
        994   -1    0    0    0    0 -0.00000000000E+00 -0.00000000000E+00  0.11368683772E-12  0.17120000000E+03  0.17120000000E+03 0.  0.
         13    1    1    2    0    0 -0.21272400886E+02  0.61103789000E+01  0.37145444805E+02  0.43239414931E+02  0.10566000000E+00 0.  1.
        994    1    1    2    0    0  0.30467176972E+02 -0.11009289327E+02  0.94603848823E+01  0.17449467673E+03  0.17120000000E+03 0.  0.
        998    1    1    2    0    0 -0.91947760867E+01  0.48989104271E+01  0.14533941666E+04  0.14534659083E+04  0.10000000000E+02 0.  1.
</event>
<event>
 5    1  0.9130022E-009  0.3851376E+03  0.7957747E-01  0.3429089E+00
         13   -1    0    0    0    0  0.00000000000E+00  0.00000000000E+00  0.14999999963E+04  0.15000000000E+04  0.10566000000E+00 0.  1.
        994   -1    0    0    0    0 -0.00000000000E+00 -0.00000000000E+00  0.11368683772E-12  0.17120000000E+03  0.17120000000E+03 0.  0.
         13    1    1    2    0    0 -0.40823691553E+00 -0.13917856057E+02  0.61143791015E+02  0.62709231523E+02  0.10566000000E+00 0.  1.
        994    1    1    2    0    0 -0.59625390803E+01  0.12045734339E+02  0.21559085052E+01  0.17174032587E+03  0.17120000000E+03 0.  0.
        998    1    1    2    0    0  0.63707759959E+01  0.18721217177E+01  0.14367002968E+04  0.14367504426E+04  0.10000000000E+02 0.  1.
</event>
<event>
 5    1  0.9130022E-009  0.3808505E+03  0.7957747E-01  0.3447464E+00
         13   -1    0    0    0    0  0.00000000000E+00  0.00000000000E+00  0.14999999963E+04  0.15000000000E+04  0.10566000000E+00 0. -1.
        994   -1    0    0    0    0 -0.00000000000E+00 -0.00000000000E+00  0.11368683772E-12  0.17120000000E+03  0.17120000000E+03 0.  0.
         13    1    1    2    0    0 -0.29780874412E+02 -0.12744847581E+02  0.15365132382E+03  0.15702888937E+03  0.10566000000E+00 0. -1.
        994    1    1    2    0    0  0.67419227599E+01 -0.72905492608E+00  0.38577514505E+01  0.17137767442E+03  0.17120000000E+03 0.  0.
        998    1    1    2    0    0  0.23038951652E+02  0.13473902507E+02  0.13424909210E+04  0.13427934362E+04  0.10000000000E+02 0. -1.
</event>
<event>
 5    1  0.9130022E-009  0.3826695E+03  0.7957747E-01  0.3439617E+00
         13   -1    0    0    0    0  0.00000000000E+00  0.00000000000E+00  0.14999999963E+04  0.15000000000E+04  0.10566000000E+00 0. -1.
        994   -1    0    0    0    0 -0.00000000000E+00 -0.00000000000E+00  0.11368683772E-12  0.17120000000E+03  0.17120000000E+03 0.  0.
         13    1    1    2    0    0 -0.15837706639E+02  0.50051322522E+01  0.49482725259E+02  0.52196125944E+02  0.10566000000E+00 0. -1.
        994    1    1    2    0    0  0.29168853801E+01 -0.12564495396E+02  0.33431329930E+01  0.17171776642E+03  0.17120000000E+03 0.  0.
        998    1    1    2    0    0  0.12920821259E+02  0.75593631442E+01  0.14471741380E+04  0.14472861076E+04  0.10000000000E+02 0. -1.
</event>
<event>
 5    1  0.9130022E-009  0.3860933E+03  0.7957747E-01  0.3425048E+00
         13   -1    0    0    0    0  0.00000000000E+00  0.00000000000E+00  0.14999999963E+04  0.15000000000E+04  0.10566000000E+00 0. -1.
        994   -1    0    0    0    0 -0.00000000000E+00 -0.00000000000E+00  0.11368683772E-12  0.17120000000E+03  0.17120000000E+03 0.  0.
         13    1    1    2    0    0  0.76061216001E+01 -0.75030644799E+01  0.51412543254E+02  0.52511044840E+02  0.10566000000E+00 0. -1.
        994    1    1    2    0    0 -0.25458165866E+01  0.14747798348E+02  0.18226084388E+01  0.17186256323E+03  0.17120000000E+03 0.  0.
        998    1    1    2    0    0 -0.50603050135E+01 -0.72447338678E+01  0.14467648446E+04  0.14468263919E+04  0.10000000000E+02 0. -1.
</event>
<event>
 5    1  0.2113258E-008  0.3861274E+03  0.7957747E-01  0.3424905E+00
         13   -1    0    0    0    0  0.00000000000E+00  0.00000000000E+00  0.14999999963E+04  0.15000000000E+04  0.10566000000E+00 0.  1.
        994   -1    0    0    0    0 -0.00000000000E+00 -0.00000000000E+00  0.11368683772E-12  0.17120000000E+03  0.17120000000E+03 0.  0.
         13    1    1    2    0    0 -0.92006100338E+01 -0.53679764917E+01  0.53829311544E+02  0.54873238850E+02  0.10566000000E+00 0.  1.
        994    1    1    2    0    0  0.55365352387E+01  0.40158737152E+01  0.12247527383E+01  0.17134094806E+03  0.17120000000E+03 0.  0.
        998    1    1    2    0    0  0.36640747951E+01  0.13521027766E+01  0.14449459320E+04  0.14449858131E+04  0.10000000000E+02 0.  1.
</event>
<event>
 5    1  0.9130022E-009  0.3730706E+03  0.7957747E-01  0.3481897E+00
         13   -1    0    0    0    0  0.00000000000E+00  0.00000000000E+00  0.14999999963E+04  0.15000000000E+04  0.10566000000E+00 0. -1.
        994   -1    0    0    0    0 -0.00000000000E+00 -0.00000000000E+00  0.11368683772E-12  0.17120000000E+03  0.17120000000E+03 0.  0.
         13    1    1    2    0    0  0.66820831513E+02  0.15521139393E+02  0.25572970090E+03  0.26477088280E+03  0.10566000000E+00 0. -1.
        994    1    1    2    0    0 -0.62797456869E+02 -0.25631638536E+02  0.23580838303E+02  0.18565020177E+03  0.17120000000E+03 0.  0.
        998    1    1    2    0    0 -0.40233746438E+01  0.10110499143E+02  0.12206894571E+04  0.12207789154E+04  0.10000000000E+02 0. -1.
</event>
<event>
 5    1  0.9130022E-009  0.3827501E+03  0.7957747E-01  0.3439271E+00
         13   -1    0    0    0    0  0.00000000000E+00  0.00000000000E+00  0.14999999963E+04  0.15000000000E+04  0.10566000000E+00 0.  1.
        994   -1    0    0    0    0 -0.00000000000E+00 -0.00000000000E+00  0.11368683772E-12  0.17120000000E+03  0.17120000000E+03 0.  0.
         13    1    1    2    0    0 -0.47233198252E+01  0.18620255944E+02  0.62736105180E+02  0.65611384216E+02  0.10566000000E+00 0.  1.
        994    1    1    2    0    0  0.16797383489E+01 -0.23811097704E+02  0.46412057312E+01  0.17291839314E+03  0.17120000000E+03 0.  0.
        998    1    1    2    0    0  0.30435814763E+01  0.51908417602E+01  0.14326226854E+04  0.14326702226E+04  0.10000000000E+02 0.  1.
</event>
<event>
 5    1  0.9130022E-009  0.3704599E+03  0.7957747E-01  0.3493780E+00
         13   -1    0    0    0    0  0.00000000000E+00  0.00000000000E+00  0.14999999963E+04  0.15000000000E+04  0.10566000000E+00 0. -1.
        994   -1    0    0    0    0 -0.00000000000E+00 -0.00000000000E+00  0.11368683772E-12  0.17120000000E+03  0.17120000000E+03 0.  0.
         13    1    1    2    0    0 -0.83813683585E+02 -0.35892550391E+02  0.52653004300E+03  0.53436589158E+03  0.10566000000E+00 0. -1.
        994    1    1    2    0    0  0.54402124517E+02 -0.20203110612E+02  0.20746255926E+02  0.18195495037E+03  0.17120000000E+03 0.  0.
        998    1    1    2    0    0  0.29411559068E+02  0.56095661003E+02  0.95272369735E+03  0.95487915805E+03  0.10000000000E+02 0. -1.
</event>
<event>
 5    1  0.9130022E-009  0.3769754E+03  0.7957747E-01  0.3464435E+00
         13   -1    0    0    0    0  0.00000000000E+00  0.00000000000E+00  0.14999999963E+04  0.15000000000E+04  0.10566000000E+00 0.  1.
        994   -1    0    0    0    0 -0.00000000000E+00 -0.00000000000E+00  0.11368683772E-12  0.17120000000E+03  0.17120000000E+03 0.  0.
         13    1    1    2    0    0 -0.12743978907E+02 -0.85010364801E+01  0.17962838440E+02  0.23608289825E+02  0.10566000000E+00 0.  1.
        994    1    1    2    0    0  0.14140983615E+02  0.10490657135E+02  0.67153603626E+01  0.17223401920E+03  0.17120000000E+03 0.  0.
        998    1    1    2    0    0 -0.13970047083E+01 -0.19896206545E+01  0.14753217975E+04  0.14753576910E+04  0.10000000000E+02 0.  1.
</event>
<event>
 5    1  0.9130022E-009  0.3780604E+03  0.7957747E-01  0.3459648E+00
         13   -1    0    0    0    0  0.00000000000E+00  0.00000000000E+00  0.14999999963E+04  0.15000000000E+04  0.10566000000E+00 0. -1.
        994   -1    0    0    0    0 -0.00000000000E+00 -0.00000000000E+00  0.11368683772E-12  0.17120000000E+03  0.17120000000E+03 0.  0.
         13    1    1    2    0    0  0.26072781569E+02 -0.37180345563E+02  0.19457313820E+03  0.19980211537E+03  0.10566000000E+00 0. -1.
        994    1    1    2    0    0 -0.14649851989E+02  0.26729083039E+02  0.82476029173E+01  0.17408769341E+03  0.17120000000E+03 0.  0.
        998    1    1    2    0    0 -0.11422929579E+02  0.10451262524E+02  0.12971792552E+04  0.12973101912E+04  0.10000000000E+02 0. -1.
</event>
<event>
 5    1  0.9130022E-009  0.3736470E+03  0.7957747E-01  0.3479296E+00
         13   -1    0    0    0    0  0.00000000000E+00  0.00000000000E+00  0.14999999963E+04  0.15000000000E+04  0.10566000000E+00 0.  1.
        994   -1    0    0    0    0 -0.00000000000E+00 -0.00000000000E+00  0.11368683772E-12  0.17120000000E+03  0.17120000000E+03 0.  0.
         13    1    1    2    0    0 -0.48563828602E+01 -0.38632664425E+02  0.98988669386E+02  0.10637121343E+03  0.10566000000E+00 0.  1.
        994    1    1    2    0    0  0.23592506675E+02  0.24300903940E+02  0.11302448790E+02  0.17488374897E+03  0.17120000000E+03 0.  0.
        998    1    1    2    0    0 -0.18736123815E+02  0.14331760485E+02  0.13897088781E+04  0.13899450376E+04  0.10000000000E+02 0.  1.
</event>
<event>
 5    1  0.9130022E-009  0.3746323E+03  0.7957747E-01  0.3474869E+00
         13   -1    0    0    0    0  0.00000000000E+00  0.00000000000E+00  0.14999999963E+04  0.15000000000E+04  0.10566000000E+00 0.  1.
        994   -1    0    0    0    0 -0.00000000000E+00 -0.00000000000E+00  0.11368683772E-12  0.17120000000E+03  0.17120000000E+03 0.  0.
         13    1    1    2    0    0  0.48338345380E+02 -0.60341730501E+02  0.41519086039E+03  0.42232828675E+03  0.10566000000E+00 0.  1.
        994    1    1    2    0    0 -0.24893004901E+02  0.42701889866E+02  0.15228496651E+02  0.17884199787E+03  0.17120000000E+03 0.  0.
        998    1    1    2    0    0 -0.23445340478E+02  0.17639840635E+02  0.10695806392E+04  0.10700297154E+04  0.10000000000E+02 0. -1.
</event>
<event>
 5    1  0.9130022E-009  0.3745922E+03  0.7957747E-01  0.3475048E+00
         13   -1    0    0    0    0  0.00000000000E+00  0.00000000000E+00  0.14999999963E+04  0.15000000000E+04  0.10566000000E+00 0.  1.
        994   -1    0    0    0    0 -0.00000000000E+00 -0.00000000000E+00  0.11368683772E-12  0.17120000000E+03  0.17120000000E+03 0.  0.
         13    1    1    2    0    0  0.79462031243E+02  0.24505390920E+02  0.31574416608E+03  0.32651051770E+03  0.10566000000E+00 0.  1.
        994    1    1    2    0    0 -0.73819191075E+01 -0.20353350887E+02  0.15055199493E+02  0.17321908282E+03  0.17120000000E+03 0.  0.
        998    1    1    2    0    0 -0.72080112136E+02 -0.41520400321E+01  0.11692006307E+04  0.11714703995E+04  0.10000000000E+02 0.  1.
</event>
<event>
 5    1  0.9130022E-009  0.3847058E+03  0.7957747E-01  0.3430921E+00
         13   -1    0    0    0    0  0.00000000000E+00  0.00000000000E+00  0.14999999963E+04  0.15000000000E+04  0.10566000000E+00 0.  1.
        994   -1    0    0    0    0 -0.00000000000E+00 -0.00000000000E+00  0.11368683772E-12  0.17120000000E+03  0.17120000000E+03 0.  0.
         13    1    1    2    0    0 -0.12414797123E+02  0.51788347173E+01  0.51001611309E+02  0.52745834308E+02  0.10566000000E+00 0.  1.
        994    1    1    2    0    0  0.82039175325E+01 -0.12347976483E+01  0.20028781095E+01  0.17141260312E+03  0.17120000000E+03 0.  0.
        998    1    1    2    0    0  0.42108795904E+01 -0.39440370691E+01  0.14469955069E+04  0.14470415626E+04  0.10000000000E+02 0.  1.
</event>
<event>
 5    1  0.9130022E-009  0.3788150E+03  0.7957747E-01  0.3456335E+00
         13   -1    0    0    0    0  0.00000000000E+00  0.00000000000E+00  0.14999999963E+04  0.15000000000E+04  0.10566000000E+00 0. -1.
        994   -1    0    0    0    0 -0.00000000000E+00 -0.00000000000E+00  0.11368683772E-12  0.17120000000E+03  0.17120000000E+03 0.  0.
         13    1    1    2    0    0 -0.71007622741E+01 -0.30426244135E+02  0.91291192331E+02  0.96489741001E+02  0.10566000000E+00 0. -1.
        994    1    1    2    0    0  0.67870855379E+01  0.41536765007E+02  0.10700423663E+02  0.17662193081E+03  0.17120000000E+03 0.  0.
        998    1    1    2    0    0  0.31367673623E+00 -0.11110520872E+02  0.13980083803E+04  0.13980883282E+04  0.10000000000E+02 0. -1.
</event>
<event>
 5    1  0.9130022E-009  0.3771349E+03  0.7957747E-01  0.3463729E+00
         13   -1    0    0    0    0  0.00000000000E+00  0.00000000000E+00  0.14999999963E+04  0.15000000000E+04  0.10566000000E+00 0. -1.
        994   -1    0    0    0    0 -0.00000000000E+00 -0.00000000000E+00  0.11368683772E-12  0.17120000000E+03  0.17120000000E+03 0.  0.
         13    1    1    2    0    0 -0.18243118873E+02 -0.32732084893E+02  0.14733015081E+03  0.15202100273E+03  0.10566000000E+00 0. -1.
        994    1    1    2    0    0  0.12980577000E+02 -0.16866907846E+02  0.71167339698E+01  0.17266463408E+03  0.17120000000E+03 0.  0.
        998    1    1    2    0    0  0.52625418730E+01  0.49598992739E+02  0.13455531115E+04  0.13465143632E+04  0.10000000000E+02 0. -1.
</event>
<event>
 5    1  0.9130022E-009  0.3859213E+03  0.7957747E-01  0.3425774E+00
         13   -1    0    0    0    0  0.00000000000E+00  0.00000000000E+00  0.14999999963E+04  0.15000000000E+04  0.10566000000E+00 0.  1.
        994   -1    0    0    0    0 -0.00000000000E+00 -0.00000000000E+00  0.11368683772E-12  0.17120000000E+03  0.17120000000E+03 0.  0.
         13    1    1    2    0    0  0.27054004566E+02 -0.71949739660E+02  0.14985793143E+03  0.16842237077E+03  0.10566000000E+00 0.  1.
        994    1    1    2    0    0 -0.14052918544E+02  0.37581264225E+02  0.25605022457E+02  0.17769325568E+03  0.17120000000E+03 0.  0.
        998    1    1    2    0    0 -0.13001086022E+02  0.34368475436E+02  0.13245370424E+04  0.13250843735E+04  0.10000000000E+02 0.  1.
</event>
<event>
 5    1  0.9130022E-009  0.3841070E+03  0.7957747E-01  0.3433468E+00
         13   -1    0    0    0    0  0.00000000000E+00  0.00000000000E+00  0.14999999963E+04  0.15000000000E+04  0.10566000000E+00 0. -1.
        994   -1    0    0    0    0 -0.00000000000E+00 -0.00000000000E+00  0.11368683772E-12  0.17120000000E+03  0.17120000000E+03 0.  0.
         13    1    1    2    0    0  0.58680359769E+01  0.12738175912E+02  0.46519720425E+02  0.48587966867E+02  0.10566000000E+00 0. -1.
        994    1    1    2    0    0 -0.42550745130E+01 -0.10541634215E+02  0.25004944025E+01  0.17159523357E+03  0.17120000000E+03 0.  0.
        998    1    1    2    0    0 -0.16129614640E+01 -0.21965416965E+01  0.14509797815E+04  0.14510167996E+04  0.10000000000E+02 0. -1.
</event>
<event>
 5    1  0.9130022E-009  0.3834174E+03  0.7957747E-01  0.3436412E+00
         13   -1    0    0    0    0  0.00000000000E+00  0.00000000000E+00  0.14999999963E+04  0.15000000000E+04  0.10566000000E+00 0.  1.
        994   -1    0    0    0    0 -0.00000000000E+00 -0.00000000000E+00  0.11368683772E-12  0.17120000000E+03  0.17120000000E+03 0.  0.
         13    1    1    2    0    0 -0.20928406133E+02 -0.86621686066E+01  0.10178213032E+03  0.10427197401E+03  0.10566000000E+00 0.  1.
        994    1    1    2    0    0  0.18197080442E+02  0.69503546128E+01  0.36731841260E+01  0.17234376533E+03  0.17120000000E+03 0.  0.
        998    1    1    2    0    0  0.27313256912E+01  0.17118139938E+01  0.13945446818E+04  0.13945842607E+04  0.10000000000E+02 0.  1.
</event>
<event>
 5    1  0.9130022E-009  0.3804006E+03  0.7957747E-01  0.3449416E+00
         13   -1    0    0    0    0  0.00000000000E+00  0.00000000000E+00  0.14999999963E+04  0.15000000000E+04  0.10566000000E+00 0. -1.
        994   -1    0    0    0    0 -0.00000000000E+00 -0.00000000000E+00  0.11368683772E-12  0.17120000000E+03  0.17120000000E+03 0.  0.
         13    1    1    2    0    0 -0.11021166373E+03  0.17751417547E+02  0.64444411304E+03  0.65404124460E+03  0.10566000000E+00 0. -1.
        994    1    1    2    0    0  0.15405816734E+03  0.39577529236E+02  0.93613557552E+02  0.25174041769E+03  0.17120000000E+03 0.  0.
        998    1    1    2    0    0 -0.43846503604E+02 -0.57328946783E+02  0.76194232569E+03  0.76541833771E+03  0.10000000000E+02 0. -1.
</event>
<event>
 5    1  0.9130022E-009  0.3814171E+03  0.7957747E-01  0.3445011E+00
         13   -1    0    0    0    0  0.00000000000E+00  0.00000000000E+00  0.14999999963E+04  0.15000000000E+04  0.10566000000E+00 0. -1.
        994   -1    0    0    0    0 -0.00000000000E+00 -0.00000000000E+00  0.11368683772E-12  0.17120000000E+03  0.17120000000E+03 0.  0.
         13    1    1    2    0    0 -0.55433163147E+01 -0.25839500439E+02  0.10621999524E+03  0.10945824177E+03  0.10566000000E+00 0. -1.
        994    1    1    2    0    0 -0.26416299018E+02  0.14121942434E+02  0.64107138537E+01  0.17391891031E+03  0.17120000000E+03 0.  0.
        998    1    1    2    0    0  0.31959615332E+02  0.11717558006E+02  0.13873692872E+04  0.13878228479E+04  0.10000000000E+02 0. -1.
</event>
<event>
 5    1  0.9130022E-009  0.3818101E+03  0.7957747E-01  0.3443315E+00
         13   -1    0    0    0    0  0.00000000000E+00  0.00000000000E+00  0.14999999963E+04  0.15000000000E+04  0.10566000000E+00 0.  1.
        994   -1    0    0    0    0 -0.00000000000E+00 -0.00000000000E+00  0.11368683772E-12  0.17120000000E+03  0.17120000000E+03 0.  0.
         13    1    1    2    0    0 -0.51163590354E+00  0.17584415342E+02  0.45433607882E+02  0.48720604711E+02  0.10566000000E+00 0.  1.
        994    1    1    2    0    0 -0.18989579454E+02 -0.20293620574E+02  0.57932758098E+01  0.17353799932E+03  0.17120000000E+03 0.  0.
        998    1    1    2    0    0  0.19501215358E+02  0.27092052320E+01  0.14487731126E+04  0.14489413960E+04  0.10000000000E+02 0.  1.
</event>
<event>
 5    1  0.9130022E-009  0.3735691E+03  0.7957747E-01  0.3479647E+00
         13   -1    0    0    0    0  0.00000000000E+00  0.00000000000E+00  0.14999999963E+04  0.15000000000E+04  0.10566000000E+00 0. -1.
        994   -1    0    0    0    0 -0.00000000000E+00 -0.00000000000E+00  0.11368683772E-12  0.17120000000E+03  0.17120000000E+03 0.  0.
         13    1    1    2    0    0 -0.39368807209E+02 -0.45483784422E+02  0.20303238858E+03  0.21175655741E+03  0.10566000000E+00 0. -1.
        994    1    1    2    0    0  0.10118113243E+02  0.80218726188E+02  0.30085269703E+02  0.19170806895E+03  0.17120000000E+03 0.  0.
        998    1    1    2    0    0  0.29250693965E+02 -0.34734941766E+02  0.12668823380E+04  0.12677353736E+04  0.10000000000E+02 0. -1.
</event>
<event>
 5    1  0.9130022E-009  0.3822096E+03  0.7957747E-01  0.3441594E+00
         13   -1    0    0    0    0  0.00000000000E+00  0.00000000000E+00  0.14999999963E+04  0.15000000000E+04  0.10566000000E+00 0.  1.
        994   -1    0    0    0    0 -0.00000000000E+00 -0.00000000000E+00  0.11368683772E-12  0.17120000000E+03  0.17120000000E+03 0.  0.
         13    1    1    2    0    0  0.18606847110E+02 -0.17513057585E+02  0.10695135009E+03  0.10996146777E+03  0.10566000000E+00 0.  1.
        994    1    1    2    0    0 -0.10485796011E+01  0.22347078728E+02  0.46846320364E+01  0.17271907024E+03  0.17120000000E+03 0.  0.
        998    1    1    2    0    0 -0.17558267509E+02 -0.48340211429E+01  0.13883640142E+04  0.13885194620E+04  0.10000000000E+02 0.  1.
</event>
<event>
 5    1  0.9130022E-009  0.3733460E+03  0.7957747E-01  0.3480653E+00
         13   -1    0    0    0    0  0.00000000000E+00  0.00000000000E+00  0.14999999963E+04  0.15000000000E+04  0.10566000000E+00 0.  1.
        994   -1    0    0    0    0 -0.00000000000E+00 -0.00000000000E+00  0.11368683772E-12  0.17120000000E+03  0.17120000000E+03 0.  0.
         13    1    1    2    0    0 -0.39293959198E+02  0.10974377080E+02  0.10079873539E+03  0.10874211880E+03  0.10566000000E+00 0.  1.
        994    1    1    2    0    0  0.38313467507E+02 -0.18337824711E+02  0.13722974127E+02  0.17692359262E+03  0.17120000000E+03 0.  0.
        998    1    1    2    0    0  0.98049169092E+00  0.73634476315E+01  0.13854782868E+04  0.13855342886E+04  0.10000000000E+02 0.  1.
</event>
<event>
 5    1  0.9130022E-009  0.3822561E+03  0.7957747E-01  0.3441393E+00
         13   -1    0    0    0    0  0.00000000000E+00  0.00000000000E+00  0.14999999963E+04  0.15000000000E+04  0.10566000000E+00 0.  1.
        994   -1    0    0    0    0 -0.00000000000E+00 -0.00000000000E+00  0.11368683772E-12  0.17120000000E+03  0.17120000000E+03 0.  0.
         13    1    1    2    0    0  0.11874564671E+02 -0.48059166346E+01  0.26276799751E+02  0.29233259996E+02  0.10566000000E+00 0.  1.
        994    1    1    2    0    0 -0.75521117904E+01  0.39581095168E+01  0.32398676067E+01  0.17144281194E+03  0.17120000000E+03 0.  0.
        998    1    1    2    0    0 -0.43224528809E+01  0.84780711776E+00  0.14704833289E+04  0.14705239281E+04  0.10000000000E+02 0.  1.
</event>
<event>
 5    1  0.9130022E-009  0.3837423E+03  0.7957747E-01  0.3435024E+00
         13   -1    0    0    0    0  0.00000000000E+00  0.00000000000E+00  0.14999999963E+04  0.15000000000E+04  0.10566000000E+00 0. -1.
        994   -1    0    0    0    0 -0.00000000000E+00 -0.00000000000E+00  0.11368683772E-12  0.17120000000E+03  0.17120000000E+03 0.  0.
         13    1    1    2    0    0 -0.75735002312E+01 -0.13471647480E+02  0.52571121969E+02  0.54795777398E+02  0.10566000000E+00 0. -1.
        994    1    1    2    0    0  0.18852554389E+02  0.52183393445E+00  0.34312485549E+01  0.17226985977E+03  0.17120000000E+03 0.  0.
        998    1    1    2    0    0 -0.11279054157E+02  0.12949813545E+02  0.14439976258E+04  0.14441343628E+04  0.10000000000E+02 0. -1.
</event>
<event>
 5    1  0.9130022E-009  0.3810287E+03  0.7957747E-01  0.3446692E+00
         13   -1    0    0    0    0  0.00000000000E+00  0.00000000000E+00  0.14999999963E+04  0.15000000000E+04  0.10566000000E+00 0.  1.
        994   -1    0    0    0    0 -0.00000000000E+00 -0.00000000000E+00  0.11368683772E-12  0.17120000000E+03  0.17120000000E+03 0.  0.
         13    1    1    2    0    0  0.32439556600E+02 -0.14737362481E+00  0.15289773907E+03  0.15630123585E+03  0.10566000000E+00 0.  1.
        994    1    1    2    0    0 -0.10868754888E+02  0.11739343818E+02  0.44679359762E+01  0.17200390832E+03  0.17120000000E+03 0.  0.
        998    1    1    2    0    0 -0.21570801712E+02 -0.11591970193E+02  0.13426343212E+04  0.13428948558E+04  0.10000000000E+02 0.  1.
</event>
<event>
 5    1  0.9130022E-009  0.3852931E+03  0.7957747E-01  0.3428430E+00
         13   -1    0    0    0    0  0.00000000000E+00  0.00000000000E+00  0.14999999963E+04  0.15000000000E+04  0.10566000000E+00 0.  1.
        994   -1    0    0    0    0 -0.00000000000E+00 -0.00000000000E+00  0.11368683772E-12  0.17120000000E+03  0.17120000000E+03 0.  0.
         13    1    1    2    0    0  0.15200733813E+02 -0.10708019142E+01  0.79167907626E+02  0.80621198746E+02  0.10566000000E+00 0.  1.
        994    1    1    2    0    0 -0.84829811561E+01  0.33585885797E+01  0.17582190680E+01  0.17145195368E+03  0.17120000000E+03 0.  0.
        998    1    1    2    0    0 -0.67177526570E+01 -0.22877866655E+01  0.14190738696E+04  0.14191268476E+04  0.10000000000E+02 0.  1.
</event>
<event>
 5    1  0.9130022E-009  0.3764128E+03  0.7957747E-01  0.3466928E+00
         13   -1    0    0    0    0  0.00000000000E+00  0.00000000000E+00  0.14999999963E+04  0.15000000000E+04  0.10566000000E+00 0.  1.
        994   -1    0    0    0    0 -0.00000000000E+00 -0.00000000000E+00  0.11368683772E-12  0.17120000000E+03  0.17120000000E+03 0.  0.
         13    1    1    2    0    0  0.40350490036E+02  0.67495086404E+02  0.38968072049E+03  0.39753594029E+03  0.10566000000E+00 0.  1.
        994    1    1    2    0    0 -0.32339537779E+02 -0.69869835008E+02  0.26279561388E+02  0.18954602316E+03  0.17120000000E+03 0.  0.
        998    1    1    2    0    0 -0.80109522579E+01  0.23747486040E+01  0.10840397144E+04  0.10841180366E+04  0.10000000000E+02 0.  1.
</event>
<event>
 5    1  0.9130022E-009  0.3889517E+03  0.7957747E-01  0.3413083E+00
         13   -1    0    0    0    0  0.00000000000E+00  0.00000000000E+00  0.14999999963E+04  0.15000000000E+04  0.10566000000E+00 0.  1.
        994   -1    0    0    0    0 -0.00000000000E+00 -0.00000000000E+00  0.11368683772E-12  0.17120000000E+03  0.17120000000E+03 0.  0.
         13    1    1    2    0    0 -0.13234312459E+03  0.56448302982E+01  0.34619144434E+03  0.37066844218E+03  0.10566000000E+00 0.  1.
        994    1    1    2    0    0  0.10958272663E+03  0.49085367046E+00  0.67882620535E+02  0.21430376825E+03  0.17120000000E+03 0.  0.
        998    1    1    2    0    0  0.22760397952E+02 -0.61356839686E+01  0.10859259314E+04  0.10862277896E+04  0.10000000000E+02 0.  1.
</event>
<event>
 5    1  0.9130022E-009  0.3773660E+03  0.7957747E-01  0.3462708E+00
         13   -1    0    0    0    0  0.00000000000E+00  0.00000000000E+00  0.14999999963E+04  0.15000000000E+04  0.10566000000E+00 0. -1.
        994   -1    0    0    0    0 -0.00000000000E+00 -0.00000000000E+00  0.11368683772E-12  0.17120000000E+03  0.17120000000E+03 0.  0.
         13    1    1    2    0    0 -0.22803848926E+02 -0.47229145510E+00  0.50365170345E+02  0.55289240662E+02  0.10566000000E+00 0. -1.
        994    1    1    2    0    0 -0.15562193558E+02  0.11302843238E+02  0.67172478171E+01  0.17240793935E+03  0.17120000000E+03 0.  0.
        998    1    1    2    0    0  0.38366042484E+02 -0.10830551783E+02  0.14429175781E+04  0.14435028200E+04  0.10000000000E+02 0. -1.
</event>
<event>
 5    1  0.9130022E-009  0.3847647E+03  0.7957747E-01  0.3430671E+00
         13   -1    0    0    0    0  0.00000000000E+00  0.00000000000E+00  0.14999999963E+04  0.15000000000E+04  0.10566000000E+00 0. -1.
        994   -1    0    0    0    0 -0.00000000000E+00 -0.00000000000E+00  0.11368683772E-12  0.17120000000E+03  0.17120000000E+03 0.  0.
         13    1    1    2    0    0 -0.79584071172E+01 -0.15489820933E+02  0.77131388596E+02  0.79072960405E+02  0.10566000000E+00 0. -1.
        994    1    1    2    0    0  0.20120747718E+02  0.22544037509E+02  0.47578658480E+01  0.17391134352E+03  0.17120000000E+03 0.  0.
        998    1    1    2    0    0 -0.12162340601E+02 -0.70542165761E+01  0.14181107418E+04  0.14182156961E+04  0.10000000000E+02 0. -1.
</event>
<event>
 5    1  0.9130022E-009  0.3806795E+03  0.7957747E-01  0.3448205E+00
         13   -1    0    0    0    0  0.00000000000E+00  0.00000000000E+00  0.14999999963E+04  0.15000000000E+04  0.10566000000E+00 0.  1.
        994   -1    0    0    0    0 -0.00000000000E+00 -0.00000000000E+00  0.11368683772E-12  0.17120000000E+03  0.17120000000E+03 0.  0.
         13    1    1    2    0    0 -0.16755734744E+02  0.21042936059E+02  0.96590199447E+02  0.10026583465E+03  0.10566000000E+00 0.  1.
        994    1    1    2    0    0  0.19007254781E+01 -0.13393441653E+02  0.44011534652E+01  0.17179000899E+03  0.17120000000E+03 0.  0.
        998    1    1    2    0    0  0.14855009266E+02 -0.76494944063E+01  0.13990086434E+04  0.13991441564E+04  0.10000000000E+02 0.  1.
</event>
<event>
 5    1  0.9130022E-009  0.3696682E+03  0.7957747E-01  0.3497417E+00
         13   -1    0    0    0    0  0.00000000000E+00  0.00000000000E+00  0.14999999963E+04  0.15000000000E+04  0.10566000000E+00 0. -1.
        994   -1    0    0    0    0 -0.00000000000E+00 -0.00000000000E+00  0.11368683772E-12  0.17120000000E+03  0.17120000000E+03 0.  0.
         13    1    1    2    0    0  0.62196018280E+02 -0.74338138208E+02  0.30245435097E+03  0.31760533538E+03  0.10566000000E+00 0. -1.
        994    1    1    2    0    0 -0.61584308691E+02  0.12370040916E+03  0.78768501210E+02  0.23368426367E+03  0.17120000000E+03 0.  0.
        998    1    1    2    0    0 -0.61170958895E+00 -0.49362270953E+02  0.11187771441E+04  0.11199104009E+04  0.10000000000E+02 0. -1.
</event>
<event>
 5    1  0.9130022E-009  0.3781904E+03  0.7957747E-01  0.3459076E+00
         13   -1    0    0    0    0  0.00000000000E+00  0.00000000000E+00  0.14999999963E+04  0.15000000000E+04  0.10566000000E+00 0. -1.
        994   -1    0    0    0    0 -0.00000000000E+00 -0.00000000000E+00  0.11368683772E-12  0.17120000000E+03  0.17120000000E+03 0.  0.
         13    1    1    2    0    0 -0.14678738947E+02 -0.72468963386E+01  0.24744635482E+02  0.29669698900E+02  0.10566000000E+00 0. -1.
        994    1    1    2    0    0  0.41570637368E+01  0.67874143784E+01  0.52624920408E+01  0.17146569335E+03  0.17120000000E+03 0.  0.
        998    1    1    2    0    0  0.10521675211E+02  0.45948196015E+00  0.14699928688E+04  0.14700646078E+04  0.10000000000E+02 0. -1.
</event>
<event>
 5    1  0.9130022E-009  0.3685420E+03  0.7957747E-01  0.3502619E+00
         13   -1    0    0    0    0  0.00000000000E+00  0.00000000000E+00  0.14999999963E+04  0.15000000000E+04  0.10566000000E+00 0. -1.
        994   -1    0    0    0    0 -0.00000000000E+00 -0.00000000000E+00  0.11368683772E-12  0.17120000000E+03  0.17120000000E+03 0.  0.
         13    1    1    2    0    0 -0.23876654315E+02  0.38923699391E+02  0.10516279118E+03  0.11464891106E+03  0.10566000000E+00 0. -1.
        994    1    1    2    0    0  0.26772565989E+02  0.17994801666E+01  0.12678341367E+02  0.17375324100E+03  0.17120000000E+03 0.  0.
        998    1    1    2    0    0 -0.28959116738E+01 -0.40723179558E+02  0.13821588637E+04  0.13827978479E+04  0.10000000000E+02 0. -1.
</event>
<event>
 5    1  0.9130022E-009  0.3817383E+03  0.7957747E-01  0.3443624E+00
         13   -1    0    0    0    0  0.00000000000E+00  0.00000000000E+00  0.14999999963E+04  0.15000000000E+04  0.10566000000E+00 0.  1.
        994   -1    0    0    0    0 -0.00000000000E+00 -0.00000000000E+00  0.11368683772E-12  0.17120000000E+03  0.17120000000E+03 0.  0.
         13    1    1    2    0    0  0.19375255039E+02  0.49041775262E+01  0.62059865411E+02  0.65198846031E+02  0.10566000000E+00 0.  1.
        994    1    1    2    0    0 -0.56493468167E+01 -0.28854608967E+01  0.33919754660E+01  0.17135106215E+03  0.17120000000E+03 0.  0.
        998    1    1    2    0    0 -0.13725908222E+02 -0.20187166295E+01  0.14345481554E+04  0.14346500918E+04  0.10000000000E+02 0.  1.
</event>
<event>
 5    1  0.9130022E-009  0.3803811E+03  0.7957747E-01  0.3449501E+00
         13   -1    0    0    0    0  0.00000000000E+00  0.00000000000E+00  0.14999999963E+04  0.15000000000E+04  0.10566000000E+00 0.  1.
        994   -1    0    0    0    0 -0.00000000000E+00 -0.00000000000E+00  0.11368683772E-12  0.17120000000E+03  0.17120000000E+03 0.  0.
         13    1    1    2    0    0 -0.68130966903E+01  0.24072842088E+02  0.79607405961E+02  0.83446211781E+02  0.10566000000E+00 0.  1.
        994    1    1    2    0    0  0.22298223558E+02 -0.57741319687E+01  0.57142673516E+01  0.17283704529E+03  0.17120000000E+03 0.  0.
        998    1    1    2    0    0 -0.15485126867E+02 -0.18298710119E+02  0.14146783230E+04  0.14149167429E+04  0.10000000000E+02 0.  1.
</event>
<event>
 5    1  0.9130022E-009  0.3851179E+03  0.7957747E-01  0.3429172E+00
         13   -1    0    0    0    0  0.00000000000E+00  0.00000000000E+00  0.14999999963E+04  0.15000000000E+04  0.10566000000E+00 0. -1.
        994   -1    0    0    0    0 -0.00000000000E+00 -0.00000000000E+00  0.11368683772E-12  0.17120000000E+03  0.17120000000E+03 0.  0.
         13    1    1    2    0    0 -0.13108394409E+02 -0.12857013293E+02  0.97023739816E+02  0.98745886227E+02  0.10566000000E+00 0. -1.
        994    1    1    2    0    0  0.19151279620E+02  0.16004880290E+02  0.36221054242E+01  0.17304764475E+03  0.17120000000E+03 0.  0.
        998    1    1    2    0    0 -0.60428852102E+01 -0.31478669970E+01  0.13993541510E+04  0.13994064690E+04  0.10000000000E+02 0. -1.
</event>
<event>
 5    1  0.9130022E-009  0.3770205E+03  0.7957747E-01  0.3464235E+00
         13   -1    0    0    0    0  0.00000000000E+00  0.00000000000E+00  0.14999999963E+04  0.15000000000E+04  0.10566000000E+00 0.  1.
        994   -1    0    0    0    0 -0.00000000000E+00 -0.00000000000E+00  0.11368683772E-12  0.17120000000E+03  0.17120000000E+03 0.  0.
         13    1    1    2    0    0  0.63703410137E+02 -0.87374478422E+02  0.57139785930E+03  0.58153929249E+03  0.10566000000E+00 0.  1.
        994    1    1    2    0    0 -0.64076421531E+02  0.94970081903E+02  0.51325680556E+02  0.21229429982E+03  0.17120000000E+03 0.  0.
        998    1    1    2    0    0  0.37301139396E+00 -0.75956034805E+01  0.87727645643E+03  0.87736640768E+03  0.10000000000E+02 0.  1.
</event>
<event>
 5    1  0.9130022E-009  0.3823362E+03  0.7957747E-01  0.3441049E+00
         13   -1    0    0    0    0  0.00000000000E+00  0.00000000000E+00  0.14999999963E+04  0.15000000000E+04  0.10566000000E+00 0.  1.
        994   -1    0    0    0    0 -0.00000000000E+00 -0.00000000000E+00  0.11368683772E-12  0.17120000000E+03  0.17120000000E+03 0.  0.
         13    1    1    2    0    0  0.19297092645E+02 -0.57191823578E+01  0.63370629129E+02  0.66490109277E+02  0.10566000000E+00 0.  1.
        994    1    1    2    0    0 -0.29552440196E+02 -0.68189173808E+01  0.60158748376E+01  0.17396975342E+03  0.17120000000E+03 0.  0.
        998    1    1    2    0    0  0.10255347551E+02  0.12538099739E+02  0.14306134923E+04  0.14307401373E+04  0.10000000000E+02 0.  1.
</event>
<event>
 5    1  0.9130022E-009  0.3732240E+03  0.7957747E-01  0.3481204E+00
         13   -1    0    0    0    0  0.00000000000E+00  0.00000000000E+00  0.14999999963E+04  0.15000000000E+04  0.10566000000E+00 0. -1.
        994   -1    0    0    0    0 -0.00000000000E+00 -0.00000000000E+00  0.11368683772E-12  0.17120000000E+03  0.17120000000E+03 0.  0.
         13    1    1    2    0    0  0.28309015140E+02 -0.41637306482E+02  0.16633526077E+03  0.17378865259E+03  0.10566000000E+00 0. -1.
        994    1    1    2    0    0  0.21235245832E+02  0.49454871569E+02  0.17565069725E+02  0.18031830651E+03  0.17120000000E+03 0.  0.
        998    1    1    2    0    0 -0.49544260972E+02 -0.78175650869E+01  0.13160996658E+04  0.13170930409E+04  0.10000000000E+02 0. -1.
</event>
<event>
 5    1  0.9130022E-009  0.3731087E+03  0.7957747E-01  0.3481725E+00
         13   -1    0    0    0    0  0.00000000000E+00  0.00000000000E+00  0.14999999963E+04  0.15000000000E+04  0.10566000000E+00 0. -1.
        994   -1    0    0    0    0 -0.00000000000E+00 -0.00000000000E+00  0.11368683772E-12  0.17120000000E+03  0.17120000000E+03 0.  0.
         13    1    1    2    0    0 -0.28792542646E+02 -0.10276525354E+03  0.55024101074E+03  0.56049521756E+03  0.10566000000E+00 0. -1.
        994    1    1    2    0    0  0.22975130948E+02  0.88114210556E+02  0.36575034487E+02  0.19733003799E+03  0.17120000000E+03 0.  0.
        998    1    1    2    0    0  0.58174116980E+01  0.14651042988E+02  0.91318395106E+03  0.91337474445E+03  0.10000000000E+02 0.  0.
</event>
<event>
 5    1  0.9130022E-009  0.3762527E+03  0.7957747E-01  0.3467639E+00
         13   -1    0    0    0    0  0.00000000000E+00  0.00000000000E+00  0.14999999963E+04  0.15000000000E+04  0.10566000000E+00 0.  1.
        994   -1    0    0    0    0 -0.00000000000E+00 -0.00000000000E+00  0.11368683772E-12  0.17120000000E+03  0.17120000000E+03 0.  0.
         13    1    1    2    0    0  0.13047359525E+02 -0.16455132445E+02  0.34565833963E+02  0.40445185325E+02  0.10566000000E+00 0.  1.
        994    1    1    2    0    0  0.15382596390E+01  0.13063632130E+02  0.66227351884E+01  0.17183225934E+03  0.17120000000E+03 0.  0.
        998    1    1    2    0    0 -0.14585619164E+02  0.33915003145E+01  0.14588114271E+04  0.14589225553E+04  0.10000000000E+02 0.  1.
</event>
<event>
 5    1  0.9130022E-009  0.3805674E+03  0.7957747E-01  0.3448691E+00
         13   -1    0    0    0    0  0.00000000000E+00  0.00000000000E+00  0.14999999963E+04  0.15000000000E+04  0.10566000000E+00 0. -1.
        994   -1    0    0    0    0 -0.00000000000E+00 -0.00000000000E+00  0.11368683772E-12  0.17120000000E+03  0.17120000000E+03 0.  0.
         13    1    1    2    0    0 -0.16256328608E+02 -0.49616452540E+02  0.25951293869E+03  0.26471312226E+03  0.10566000000E+00 0. -1.
        994    1    1    2    0    0  0.16684264109E+02  0.64380055378E+02  0.18749255393E+02  0.18461887980E+03  0.17120000000E+03 0.  0.
        998    1    1    2    0    0 -0.42793550079E+00 -0.14763602838E+02  0.12217378022E+04  0.12218679979E+04  0.10000000000E+02 0. -1.
</event>
<event>
 5    1  0.9130022E-009  0.3733304E+03  0.7957747E-01  0.3480723E+00
         13   -1    0    0    0    0  0.00000000000E+00  0.00000000000E+00  0.14999999963E+04  0.15000000000E+04  0.10566000000E+00 0. -1.
        994   -1    0    0    0    0 -0.00000000000E+00 -0.00000000000E+00  0.11368683772E-12  0.17120000000E+03  0.17120000000E+03 0.  0.
         13    1    1    2    0    0 -0.11793626047E+03  0.23965742780E+02  0.53537128233E+03  0.54873102652E+03  0.10566000000E+00 0. -1.
        994    1    1    2    0    0  0.12422584683E+03 -0.39489492147E+02  0.68053601817E+02  0.22568166459E+03  0.17120000000E+03 0.  0.
        998    1    1    2    0    0 -0.62895863552E+01  0.15523749367E+02  0.89657511213E+03  0.89678730889E+03  0.10000000000E+02 0. -1.
</event>
<event>
 5    1  0.9130022E-009  0.3782978E+03  0.7957747E-01  0.3458604E+00
         13   -1    0    0    0    0  0.00000000000E+00  0.00000000000E+00  0.14999999963E+04  0.15000000000E+04  0.10566000000E+00 0.  1.
        994   -1    0    0    0    0 -0.00000000000E+00 -0.00000000000E+00  0.11368683772E-12  0.17120000000E+03  0.17120000000E+03 0.  0.
         13    1    1    2    0    0  0.76631205052E+00 -0.27482769829E+02  0.77575306978E+02  0.82303276292E+02  0.10566000000E+00 0.  1.
        994    1    1    2    0    0 -0.65868991328E+01  0.54107001758E+01  0.52391987463E+01  0.17149213428E+03  0.17120000000E+03 0.  0.
        998    1    1    2    0    0  0.58205870823E+01  0.22072069653E+02  0.14171854906E+04  0.14174045894E+04  0.10000000000E+02 0.  1.
</event>
<event>
 5    1  0.9130022E-009  0.3842589E+03  0.7957747E-01  0.3432821E+00
         13   -1    0    0    0    0  0.00000000000E+00  0.00000000000E+00  0.14999999963E+04  0.15000000000E+04  0.10566000000E+00 0.  1.
        994   -1    0    0    0    0 -0.00000000000E+00 -0.00000000000E+00  0.11368683772E-12  0.17120000000E+03  0.17120000000E+03 0.  0.
         13    1    1    2    0    0  0.19847824720E+02 -0.68514711469E+01  0.10491765731E+03  0.10699815317E+03  0.10566000000E+00 0.  1.
        994    1    1    2    0    0 -0.25135685555E+02 -0.11075464531E+02  0.44896326054E+01  0.17344758691E+03  0.17120000000E+03 0.  0.
        998    1    1    2    0    0  0.52878608356E+01  0.17926935678E+02  0.13905927064E+04  0.13907542599E+04  0.10000000000E+02 0.  1.
</event>
<event>
 5    1  0.9130022E-009  0.3716342E+03  0.7957747E-01  0.3488414E+00
         13   -1    0    0    0    0  0.00000000000E+00  0.00000000000E+00  0.14999999963E+04  0.15000000000E+04  0.10566000000E+00 0. -1.
        994   -1    0    0    0    0 -0.00000000000E+00 -0.00000000000E+00  0.11368683772E-12  0.17120000000E+03  0.17120000000E+03 0.  0.
         13    1    1    2    0    0 -0.36785786953E+02  0.69183255826E+01  0.76684237316E+02  0.85331944589E+02  0.10566000000E+00 0. -1.
        994    1    1    2    0    0  0.39418745414E+02  0.11646540221E+02  0.14248656579E+02  0.17664071898E+03  0.17120000000E+03 0.  0.
        998    1    1    2    0    0 -0.26329584612E+01 -0.18564865803E+02  0.14090671024E+04  0.14092273364E+04  0.10000000000E+02 0. -1.
</event>
<event>
 5    1  0.9130022E-009  0.3759193E+03  0.7957747E-01  0.3469122E+00
         13   -1    0    0    0    0  0.00000000000E+00  0.00000000000E+00  0.14999999963E+04  0.15000000000E+04  0.10566000000E+00 0. -1.
        994   -1    0    0    0    0 -0.00000000000E+00 -0.00000000000E+00  0.11368683772E-12  0.17120000000E+03  0.17120000000E+03 0.  0.
         13    1    1    2    0    0  0.61074493927E+02  0.85985244797E+01  0.36939449445E+03  0.37450812024E+03  0.10566000000E+00 0. -1.
        994    1    1    2    0    0 -0.26146168726E+02  0.47851108286E+02  0.16350566174E+02  0.18041655056E+03  0.17120000000E+03 0.  0.
        998    1    1    2    0    0 -0.34928325201E+02 -0.56449632766E+02  0.11142549357E+04  0.11162753292E+04  0.10000000000E+02 0. -1.
</event>
<event>
 5    1  0.9130022E-009  0.3766911E+03  0.7957747E-01  0.3465694E+00
         13   -1    0    0    0    0  0.00000000000E+00  0.00000000000E+00  0.14999999963E+04  0.15000000000E+04  0.10566000000E+00 0.  1.
        994   -1    0    0    0    0 -0.00000000000E+00 -0.00000000000E+00  0.11368683772E-12  0.17120000000E+03  0.17120000000E+03 0.  0.
         13    1    1    2    0    0  0.31025451199E+02  0.15854977516E+02  0.10525335063E+03  0.11087036537E+03  0.10566000000E+00 0.  1.
        994    1    1    2    0    0 -0.13860733999E+02 -0.60786637333E+01  0.65874755176E+01  0.17199390958E+03  0.17120000000E+03 0.  0.
        998    1    1    2    0    0 -0.17164717200E+02 -0.97763137829E+01  0.13881591701E+04  0.13883357250E+04  0.10000000000E+02 0.  1.
</event>
<event>
 5    1  0.9130022E-009  0.3704515E+03  0.7957747E-01  0.3493819E+00
         13   -1    0    0    0    0  0.00000000000E+00  0.00000000000E+00  0.14999999963E+04  0.15000000000E+04  0.10566000000E+00 0.  1.
        994   -1    0    0    0    0 -0.00000000000E+00 -0.00000000000E+00  0.11368683772E-12  0.17120000000E+03  0.17120000000E+03 0.  0.
         13    1    1    2    0    0  0.11262430899E+03  0.61475852183E+02  0.51041913887E+03  0.52629955716E+03  0.10566000000E+00 0.  1.
        994    1    1    2    0    0 -0.12135553402E+03 -0.68534750947E+02  0.79409577107E+02  0.23460498431E+03  0.17120000000E+03 0.  0.
        998    1    1    2    0    0  0.87312250267E+01  0.70588987644E+01  0.91017128030E+03  0.91029545853E+03  0.10000000000E+02 0.  1.
</event>
<event>
 5    1  0.9130022E-009  0.3814310E+03  0.7957747E-01  0.3444951E+00
         13   -1    0    0    0    0  0.00000000000E+00  0.00000000000E+00  0.14999999963E+04  0.15000000000E+04  0.10566000000E+00 0.  1.
        994   -1    0    0    0    0 -0.00000000000E+00 -0.00000000000E+00  0.11368683772E-12  0.17120000000E+03  0.17120000000E+03 0.  0.
         13    1    1    2    0    0 -0.13919827611E+02  0.22117695705E+02  0.95211760041E+02  0.98733198460E+02  0.10566000000E+00 0.  1.
        994    1    1    2    0    0  0.16488239869E+02 -0.16930605171E+02  0.52730109922E+01  0.17290388107E+03  0.17120000000E+03 0.  0.
        998    1    1    2    0    0 -0.25684122576E+01 -0.51870905338E+01  0.13995152252E+04  0.13995629205E+04  0.10000000000E+02 0.  1.
</event>
<event>
 5    1  0.9130022E-009  0.3743278E+03  0.7957747E-01  0.3476234E+00
         13   -1    0    0    0    0  0.00000000000E+00  0.00000000000E+00  0.14999999963E+04  0.15000000000E+04  0.10566000000E+00 0. -1.
        994   -1    0    0    0    0 -0.00000000000E+00 -0.00000000000E+00  0.11368683772E-12  0.17120000000E+03  0.17120000000E+03 0.  0.
         13    1    1    2    0    0 -0.40717744400E+02 -0.53429724126E+02  0.19305960399E+03  0.20441304261E+03  0.10566000000E+00 0. -1.
        994    1    1    2    0    0  0.38744234195E+02 -0.18628128388E+02  0.19835220240E+02  0.17762600827E+03  0.17120000000E+03 0.  0.
        998    1    1    2    0    0  0.19735102049E+01  0.72057852513E+02  0.12871051720E+04  0.12891609491E+04  0.10000000000E+02 0. -1.
</event>
<event>
 5    1  0.9130022E-009  0.3797353E+03  0.7957747E-01  0.3452312E+00
         13   -1    0    0    0    0  0.00000000000E+00  0.00000000000E+00  0.14999999963E+04  0.15000000000E+04  0.10566000000E+00 0. -1.
        994   -1    0    0    0    0 -0.00000000000E+00 -0.00000000000E+00  0.11368683772E-12  0.17120000000E+03  0.17120000000E+03 0.  0.
         13    1    1    2    0    0 -0.21306597762E+01  0.11429624018E+02  0.14094597162E+02  0.18271421660E+02  0.10566000000E+00 0. -1.
        994    1    1    2    0    0 -0.13063233147E+01 -0.57304495267E+01  0.43824264508E+01  0.17135690880E+03  0.17120000000E+03 0.  0.
        998    1    1    2    0    0  0.34369830909E+01 -0.56991744916E+01  0.14815229727E+04  0.14815716695E+04  0.10000000000E+02 0. -1.
</event>
<event>
 5    1  0.9130022E-009  0.3826105E+03  0.7957747E-01  0.3439870E+00
         13   -1    0    0    0    0  0.00000000000E+00  0.00000000000E+00  0.14999999963E+04  0.15000000000E+04  0.10566000000E+00 0.  1.
        994   -1    0    0    0    0 -0.00000000000E+00 -0.00000000000E+00  0.11368683772E-12  0.17120000000E+03  0.17120000000E+03 0.  0.
         13    1    1    2    0    0  0.15626237756E+02 -0.15745272729E+02  0.10167309148E+03  0.10406498746E+03  0.10566000000E+00 0.  1.
        994    1    1    2    0    0  0.38493704410E+01 -0.13047531219E+02  0.34347429075E+01  0.17177395956E+03  0.17120000000E+03 0.  0.
        998    1    1    2    0    0 -0.19475608197E+02  0.28792803949E+02  0.13948921619E+04  0.13953610530E+04  0.10000000000E+02 0.  1.
</event>
<event>
 5    1  0.9130022E-009  0.3785597E+03  0.7957747E-01  0.3457454E+00
         13   -1    0    0    0    0  0.00000000000E+00  0.00000000000E+00  0.14999999963E+04  0.15000000000E+04  0.10566000000E+00 0.  1.
        994   -1    0    0    0    0 -0.00000000000E+00 -0.00000000000E+00  0.11368683772E-12  0.17120000000E+03  0.17120000000E+03 0.  0.
         13    1    1    2    0    0 -0.20554296162E+02  0.22275023240E+03  0.73659850297E+03  0.76981654365E+03  0.10566000000E+00 0.  1.
        994    1    1    2    0    0  0.11719306182E+02 -0.26820241683E+03  0.30623150027E+03  0.44176583196E+03  0.17120000000E+03 0.  0.
        998    1    1    2    0    0  0.88349899804E+01  0.45452184435E+02  0.45716999304E+03  0.45961762439E+03  0.10000000000E+02 0. -1.
</event>
<event>
 5    1  0.9130022E-009  0.3764514E+03  0.7957747E-01  0.3466757E+00
         13   -1    0    0    0    0  0.00000000000E+00  0.00000000000E+00  0.14999999963E+04  0.15000000000E+04  0.10566000000E+00 0.  1.
        994   -1    0    0    0    0 -0.00000000000E+00 -0.00000000000E+00  0.11368683772E-12  0.17120000000E+03  0.17120000000E+03 0.  0.
         13    1    1    2    0    0 -0.28183016731E+01  0.52554078117E+02  0.17466034541E+03  0.18241743715E+03  0.10566000000E+00 0.  1.
        994    1    1    2    0    0  0.13636720568E+02 -0.79502409551E+02  0.28271995626E+02  0.19135134964E+03  0.17120000000E+03 0.  0.
        998    1    1    2    0    0 -0.10818418894E+02  0.26948331434E+02  0.12970676552E+04  0.12974312132E+04  0.10000000000E+02 0.  1.
</event>
<event>
 5    1  0.9130022E-009  0.3789458E+03  0.7957747E-01  0.3455762E+00
         13   -1    0    0    0    0  0.00000000000E+00  0.00000000000E+00  0.14999999963E+04  0.15000000000E+04  0.10566000000E+00 0. -1.
        994   -1    0    0    0    0 -0.00000000000E+00 -0.00000000000E+00  0.11368683772E-12  0.17120000000E+03  0.17120000000E+03 0.  0.
         13    1    1    2    0    0 -0.34701073768E+02  0.13390147155E+02  0.36804917048E+02  0.52326605513E+02  0.10566000000E+00 0. -1.
        994    1    1    2    0    0  0.36068408619E+02 -0.11479556165E+02  0.20938474275E+02  0.17658020845E+03  0.17120000000E+03 0.  0.
        998    1    1    2    0    0 -0.13673348511E+01 -0.19105909905E+01  0.14422566050E+04  0.14422931860E+04  0.10000000000E+02 0. -1.
</event>
<event>
 5    1  0.9130022E-009  0.3761607E+03  0.7957747E-01  0.3468048E+00
         13   -1    0    0    0    0  0.00000000000E+00  0.00000000000E+00  0.14999999963E+04  0.15000000000E+04  0.10566000000E+00 0. -1.
        994   -1    0    0    0    0 -0.00000000000E+00 -0.00000000000E+00  0.11368683772E-12  0.17120000000E+03  0.17120000000E+03 0.  0.
         13    1    1    2    0    0 -0.72298403163E+02 -0.55883834748E+02  0.53091942033E+03  0.53872581536E+03  0.10566000000E+00 0. -1.
        994    1    1    2    0    0  0.57172932174E+02  0.49902410841E+02  0.25839615859E+02  0.18903999717E+03  0.17120000000E+03 0.  0.
        998    1    1    2    0    0  0.15125470989E+02  0.59814239070E+01  0.94324096009E+03  0.94343418748E+03  0.10000000000E+02 0. -1.
</event>
<event>
 5    1  0.9130022E-009  0.3950133E+03  0.7957747E-01  0.3388284E+00
         13   -1    0    0    0    0  0.00000000000E+00  0.00000000000E+00  0.14999999963E+04  0.15000000000E+04  0.10566000000E+00 0.  1.
        994   -1    0    0    0    0 -0.00000000000E+00 -0.00000000000E+00  0.11368683772E-12  0.17120000000E+03  0.17120000000E+03 0.  0.
         13    1    1    2    0    0 -0.65964982757E+02  0.23866178095E+02  0.94848404999E+02  0.11797120200E+03  0.10566000000E+00 0.  1.
        994    1    1    2    0    0  0.49739328370E+02  0.34088350960E+02  0.38918612126E+02  0.18563435789E+03  0.17120000000E+03 0.  0.
        998    1    1    2    0    0  0.16225654386E+02 -0.57954529055E+02  0.13662329792E+04  0.13675944401E+04  0.10000000000E+02 0.  1.
</event>
<event>
 5    1  0.9130022E-009  0.3688263E+03  0.7957747E-01  0.3501303E+00
         13   -1    0    0    0    0  0.00000000000E+00  0.00000000000E+00  0.14999999963E+04  0.15000000000E+04  0.10566000000E+00 0.  1.
        994   -1    0    0    0    0 -0.00000000000E+00 -0.00000000000E+00  0.11368683772E-12  0.17120000000E+03  0.17120000000E+03 0.  0.
         13    1    1    2    0    0 -0.61795238646E+00  0.24071948251E+02  0.23085164759E+02  0.33358305619E+02  0.10566000000E+00 0.  1.
        994    1    1    2    0    0  0.63706751086E+01 -0.29174721928E+02  0.13430604761E+02  0.17430310108E+03  0.17120000000E+03 0.  0.
        998    1    1    2    0    0 -0.57527227222E+01  0.51027736770E+01  0.14634842268E+04  0.14635385933E+04  0.10000000000E+02 0.  1.
</event>
<event>
 5    1  0.9130022E-009  0.3807526E+03  0.7957747E-01  0.3447888E+00
         13   -1    0    0    0    0  0.00000000000E+00  0.00000000000E+00  0.14999999963E+04  0.15000000000E+04  0.10566000000E+00 0. -1.
        994   -1    0    0    0    0 -0.00000000000E+00 -0.00000000000E+00  0.11368683772E-12  0.17120000000E+03  0.17120000000E+03 0.  0.
         13    1    1    2    0    0  0.17273695354E+02 -0.25313427672E+02  0.12231948230E+03  0.12610002809E+03  0.10566000000E+00 0. -1.
        994    1    1    2    0    0 -0.34025450699E+00  0.24719189058E+02  0.57943419481E+01  0.17307272598E+03  0.17120000000E+03 0.  0.
        998    1    1    2    0    0 -0.16933440847E+02  0.59423861431E+00  0.13718861720E+04  0.13720272459E+04  0.10000000000E+02 0. -1.
</event>
<event>
 5    1  0.9130022E-009  0.3647803E+03  0.7957747E-01  0.3520229E+00
         13   -1    0    0    0    0  0.00000000000E+00  0.00000000000E+00  0.14999999963E+04  0.15000000000E+04  0.10566000000E+00 0. -1.
        994   -1    0    0    0    0 -0.00000000000E+00 -0.00000000000E+00  0.11368683772E-12  0.17120000000E+03  0.17120000000E+03 0.  0.
         13    1    1    2    0    0  0.66866293550E+02 -0.31346294103E+03  0.72048575180E+03  0.78856188491E+03  0.10566000000E+00 0. -1.
        994    1    1    2    0    0 -0.60844169853E+02  0.30944928870E+03  0.57523629398E+03  0.67798754354E+03  0.17120000000E+03 0.  0.
        998    1    1    2    0    0 -0.60221236979E+01  0.40136523261E+01  0.20427795050E+03  0.20465057156E+03  0.10000000000E+02 0.  0.
</event>
<event>
 5    1  0.9130022E-009  0.3824294E+03  0.7957747E-01  0.3440648E+00
         13   -1    0    0    0    0  0.00000000000E+00  0.00000000000E+00  0.14999999963E+04  0.15000000000E+04  0.10566000000E+00 0. -1.
        994   -1    0    0    0    0 -0.00000000000E+00 -0.00000000000E+00  0.11368683772E-12  0.17120000000E+03  0.17120000000E+03 0.  0.
         13    1    1    2    0    0 -0.15706597265E+02 -0.49398982247E+01  0.44943993164E+02  0.47865159330E+02  0.10566000000E+00 0. -1.
        994    1    1    2    0    0  0.13682983110E+02  0.43590736057E+01  0.35960056678E+01  0.17183886873E+03  0.17120000000E+03 0.  0.
        998    1    1    2    0    0  0.20236141548E+01  0.58082461901E+00  0.14514599974E+04  0.14514959719E+04  0.10000000000E+02 0. -1.
</event>
<event>
 5    1  0.9130022E-009  0.3813702E+03  0.7957747E-01  0.3445214E+00
         13   -1    0    0    0    0  0.00000000000E+00  0.00000000000E+00  0.14999999963E+04  0.15000000000E+04  0.10566000000E+00 0.  1.
        994   -1    0    0    0    0 -0.00000000000E+00 -0.00000000000E+00  0.11368683772E-12  0.17120000000E+03  0.17120000000E+03 0.  0.
         13    1    1    2    0    0  0.15674299489E+02 -0.20439916881E+02  0.10499076917E+03  0.10810433221E+03  0.10566000000E+00 0.  1.
        994    1    1    2    0    0  0.89323338069E+01  0.55893374808E+01  0.38126603035E+01  0.17156632437E+03  0.17120000000E+03 0.  0.
        998    1    1    2    0    0 -0.24606633295E+02  0.14850579400E+02  0.13911965668E+04  0.13915293434E+04  0.10000000000E+02 0.  1.
</event>
<event>
 5    1  0.9130022E-009  0.3836608E+03  0.7957747E-01  0.3435372E+00
         13   -1    0    0    0    0  0.00000000000E+00  0.00000000000E+00  0.14999999963E+04  0.15000000000E+04  0.10566000000E+00 0.  1.
        994   -1    0    0    0    0 -0.00000000000E+00 -0.00000000000E+00  0.11368683772E-12  0.17120000000E+03  0.17120000000E+03 0.  0.
         13    1    1    2    0    0  0.35669809589E+02 -0.42438528596E+02  0.79970952896E+02  0.97307391788E+02  0.10566000000E+00 0.  1.
        994    1    1    2    0    0 -0.88270308494E+01  0.28227540881E+02  0.21571948817E+02  0.17506998462E+03  0.17120000000E+03 0.  0.
        998    1    1    2    0    0 -0.26842778739E+02  0.14210987715E+02  0.13984570946E+04  0.13988226236E+04  0.10000000000E+02 0.  1.
</event>
<event>
 5    1  0.9130022E-009  0.3839316E+03  0.7957747E-01  0.3434216E+00
         13   -1    0    0    0    0  0.00000000000E+00  0.00000000000E+00  0.14999999963E+04  0.15000000000E+04  0.10566000000E+00 0.  1.
        994   -1    0    0    0    0 -0.00000000000E+00 -0.00000000000E+00  0.11368683772E-12  0.17120000000E+03  0.17120000000E+03 0.  0.
         13    1    1    2    0    0  0.21476186607E+02  0.98845165351E+01  0.13650233661E+03  0.13853457807E+03  0.10566000000E+00 0.  1.
        994    1    1    2    0    0 -0.10575487009E+02  0.50158371769E+01  0.26137523027E+01  0.17161955381E+03  0.17120000000E+03 0.  0.
        998    1    1    2    0    0 -0.10900699598E+02 -0.14900353712E+02  0.13608839074E+04  0.13610458681E+04  0.10000000000E+02 0.  1.
</event>
<event>
 5    1  0.9130022E-009  0.3728465E+03  0.7957747E-01  0.3482910E+00
         13   -1    0    0    0    0  0.00000000000E+00  0.00000000000E+00  0.14999999963E+04  0.15000000000E+04  0.10566000000E+00 0.  1.
        994   -1    0    0    0    0 -0.00000000000E+00 -0.00000000000E+00  0.11368683772E-12  0.17120000000E+03  0.17120000000E+03 0.  0.
         13    1    1    2    0    0  0.78574303660E+01 -0.65971624391E+01  0.31329201455E+01  0.10727912979E+02  0.10566000000E+00 0.  1.
        994    1    1    2    0    0 -0.73736642208E+01  0.27899459848E+01  0.80016410345E+01  0.17156812344E+03  0.17120000000E+03 0.  0.
        998    1    1    2    0    0 -0.48376614519E+00  0.38072164542E+01  0.14888654351E+04  0.14889039636E+04  0.10000000000E+02 0.  1.
</event>
<event>
 5    1  0.9130022E-009  0.3839249E+03  0.7957747E-01  0.3434245E+00
         13   -1    0    0    0    0  0.00000000000E+00  0.00000000000E+00  0.14999999963E+04  0.15000000000E+04  0.10566000000E+00 0. -1.
        994   -1    0    0    0    0 -0.00000000000E+00 -0.00000000000E+00  0.11368683772E-12  0.17120000000E+03  0.17120000000E+03 0.  0.
         13    1    1    2    0    0  0.24329609884E+02 -0.14980961203E+02  0.17154386437E+03  0.17390706623E+03  0.10566000000E+00 0. -1.
        994    1    1    2    0    0 -0.32127412482E+02  0.70031115207E+00  0.55802528217E+01  0.17427920212E+03  0.17120000000E+03 0.  0.
        998    1    1    2    0    0  0.77978025985E+01  0.14280650051E+02  0.13228758791E+04  0.13230137317E+04  0.10000000000E+02 0. -1.
</event>
<event>
 5    1  0.9130022E-009  0.3848611E+03  0.7957747E-01  0.3430261E+00
         13   -1    0    0    0    0  0.00000000000E+00  0.00000000000E+00  0.14999999963E+04  0.15000000000E+04  0.10566000000E+00 0. -1.
        994   -1    0    0    0    0 -0.00000000000E+00 -0.00000000000E+00  0.11368683772E-12  0.17120000000E+03  0.17120000000E+03 0.  0.
         13    1    1    2    0    0 -0.22047906730E+02 -0.42022181716E+02  0.28465352242E+03  0.28858207313E+03  0.10566000000E+00 0. -1.
        994    1    1    2    0    0  0.30105004836E+02  0.98588847985E+02  0.37478817378E+02  0.20332283201E+03  0.17120000000E+03 0.  0.
        998    1    1    2    0    0 -0.80570981057E+01 -0.56566666270E+02  0.11778676565E+04  0.11792950949E+04  0.10000000000E+02 0. -1.
</event>
<event>
 5    1  0.9130022E-009  0.3794644E+03  0.7957747E-01  0.3453494E+00
         13   -1    0    0    0    0  0.00000000000E+00  0.00000000000E+00  0.14999999963E+04  0.15000000000E+04  0.10566000000E+00 0. -1.
        994   -1    0    0    0    0 -0.00000000000E+00 -0.00000000000E+00  0.11368683772E-12  0.17120000000E+03  0.17120000000E+03 0.  0.
         13    1    1    2    0    0 -0.12310377155E+03 -0.18707251229E+02  0.59069168949E+03  0.60367307627E+03  0.10566000000E+00 0. -1.
        994    1    1    2    0    0  0.53354541931E+02 -0.14929332091E+02  0.27219044918E+02  0.18198875929E+03  0.17120000000E+03 0.  0.
        998    1    1    2    0    0  0.69749229622E+02  0.33636583320E+02  0.88208926187E+03  0.88553816444E+03  0.10000000000E+02 0. -1.
</event>
<event>
 5    1  0.9130022E-009  0.3773437E+03  0.7957747E-01  0.3462807E+00
         13   -1    0    0    0    0  0.00000000000E+00  0.00000000000E+00  0.14999999963E+04  0.15000000000E+04  0.10566000000E+00 0. -1.
        994   -1    0    0    0    0 -0.00000000000E+00 -0.00000000000E+00  0.11368683772E-12  0.17120000000E+03  0.17120000000E+03 0.  0.
         13    1    1    2    0    0 -0.16128651804E+02 -0.35848083011E+00  0.21310422586E+02  0.26728396741E+02  0.10566000000E+00 0. -1.
        994    1    1    2    0    0  0.13587208331E+02 -0.12065158106E+02  0.65944104133E+01  0.17228785947E+03  0.17120000000E+03 0.  0.
        998    1    1    2    0    0  0.25414434731E+01  0.12423638936E+02  0.14720951633E+04  0.14721837438E+04  0.10000000000E+02 0. -1.
</event>
<event>
 5    1  0.9130022E-009  0.3765348E+03  0.7957747E-01  0.3466387E+00
         13   -1    0    0    0    0  0.00000000000E+00  0.00000000000E+00  0.14999999963E+04  0.15000000000E+04  0.10566000000E+00 0.  1.
        994   -1    0    0    0    0 -0.00000000000E+00 -0.00000000000E+00  0.11368683772E-12  0.17120000000E+03  0.17120000000E+03 0.  0.
         13    1    1    2    0    0 -0.14419508264E+01 -0.26625729145E+02  0.18331785827E+02  0.32358526084E+02  0.10566000000E+00 0.  1.
        994    1    1    2    0    0 -0.16949397007E+01  0.25278085557E+02  0.16736667721E+02  0.17387182197E+03  0.17120000000E+03 0.  0.
        998    1    1    2    0    0  0.31368905271E+01  0.13476435879E+01  0.14649315427E+04  0.14649696519E+04  0.10000000000E+02 0.  1.
</event>
<event>
 5    1  0.9130022E-009  0.3819271E+03  0.7957747E-01  0.3442810E+00
         13   -1    0    0    0    0  0.00000000000E+00  0.00000000000E+00  0.14999999963E+04  0.15000000000E+04  0.10566000000E+00 0.  1.
        994   -1    0    0    0    0 -0.00000000000E+00 -0.00000000000E+00  0.11368683772E-12  0.17120000000E+03  0.17120000000E+03 0.  0.
         13    1    1    2    0    0 -0.12758558145E+02 -0.91690067079E+01  0.38236905799E+02  0.41339129394E+02  0.10566000000E+00 0.  1.
        994    1    1    2    0    0  0.80917432264E+01  0.25838781161E+01  0.34032158345E+01  0.17144437761E+03  0.17120000000E+03 0.  0.
        998    1    1    2    0    0  0.46668149187E+01  0.65851285918E+01  0.14583598746E+04  0.14584164930E+04  0.10000000000E+02 0.  1.
</event>
<event>
 5    1  0.9130022E-009  0.3830755E+03  0.7957747E-01  0.3437875E+00
         13   -1    0    0    0    0  0.00000000000E+00  0.00000000000E+00  0.14999999963E+04  0.15000000000E+04  0.10566000000E+00 0. -1.
        994   -1    0    0    0    0 -0.00000000000E+00 -0.00000000000E+00  0.11368683772E-12  0.17120000000E+03  0.17120000000E+03 0.  0.
         13    1    1    2    0    0 -0.26012274477E+02  0.15410908488E+02  0.17505446258E+03  0.17764630747E+03  0.10566000000E+00 0. -1.
        994    1    1    2    0    0  0.13703048275E+02 -0.12916664052E+02  0.37630391335E+01  0.17227366080E+03  0.17120000000E+03 0.  0.
        998    1    1    2    0    0  0.12309226203E+02 -0.24942444359E+01  0.13211824946E+04  0.13212800317E+04  0.10000000000E+02 0.  1.
</event>
<event>
 5    1  0.9130022E-009  0.3719410E+03  0.7957747E-01  0.3487018E+00
         13   -1    0    0    0    0  0.00000000000E+00  0.00000000000E+00  0.14999999963E+04  0.15000000000E+04  0.10566000000E+00 0. -1.
        994   -1    0    0    0    0 -0.00000000000E+00 -0.00000000000E+00  0.11368683772E-12  0.17120000000E+03  0.17120000000E+03 0.  0.
         13    1    1    2    0    0 -0.34183812123E+02 -0.20220305579E+02  0.93068444149E+02  0.10118863686E+03  0.10566000000E+00 0. -1.
        994    1    1    2    0    0  0.14011673635E+02  0.22288341017E+02  0.10642260491E+02  0.17353902976E+03  0.17120000000E+03 0.  0.
        998    1    1    2    0    0  0.20172138488E+02 -0.20680354378E+01  0.13962892916E+04  0.13964723334E+04  0.10000000000E+02 0. -1.
</event>
<event>
 5    1  0.9130022E-009  0.3760984E+03  0.7957747E-01  0.3468325E+00
         13   -1    0    0    0    0  0.00000000000E+00  0.00000000000E+00  0.14999999963E+04  0.15000000000E+04  0.10566000000E+00 0.  1.
        994   -1    0    0    0    0 -0.00000000000E+00 -0.00000000000E+00  0.11368683772E-12  0.17120000000E+03  0.17120000000E+03 0.  0.
         13    1    1    2    0    0  0.88615186447E+01  0.97322978765E+01  0.11376917106E+02  0.17397975213E+02  0.10566000000E+00 0.  1.
        994    1    1    2    0    0 -0.83056703171E+01 -0.84724659781E+01  0.65926425857E+01  0.17173721139E+03  0.17120000000E+03 0.  0.
        998    1    1    2    0    0 -0.55584832758E+00 -0.12598318983E+01  0.14820304366E+04  0.14820648134E+04  0.10000000000E+02 0.  1.
</event>
<event>
 5    1  0.9130022E-009  0.3847091E+03  0.7957747E-01  0.3430907E+00
         13   -1    0    0    0    0  0.00000000000E+00  0.00000000000E+00  0.14999999963E+04  0.15000000000E+04  0.10566000000E+00 0.  1.
        994   -1    0    0    0    0 -0.00000000000E+00 -0.00000000000E+00  0.11368683772E-12  0.17120000000E+03  0.17120000000E+03 0.  0.
         13    1    1    2    0    0  0.15124588488E+02  0.16372433613E+02  0.10931891331E+03  0.11156812148E+03  0.10566000000E+00 0.  1.
        994    1    1    2    0    0 -0.24258048993E+02 -0.41066381988E+02  0.92992467834E+01  0.17796296430E+03  0.17120000000E+03 0.  0.
        998    1    1    2    0    0  0.91334605043E+01  0.24693948375E+02  0.13813818362E+04  0.13816689142E+04  0.10000000000E+02 0.  1.
</event>
<event>
 5    1  0.9130022E-009  0.3687087E+03  0.7957747E-01  0.3501846E+00
         13   -1    0    0    0    0  0.00000000000E+00  0.00000000000E+00  0.14999999963E+04  0.15000000000E+04  0.10566000000E+00 0. -1.
        994   -1    0    0    0    0 -0.00000000000E+00 -0.00000000000E+00  0.11368683772E-12  0.17120000000E+03  0.17120000000E+03 0.  0.
         13    1    1    2    0    0 -0.28213494477E+02  0.48236906411E+01  0.35765251420E+02  0.45808663320E+02  0.10566000000E+00 0. -1.
        994    1    1    2    0    0  0.23543415865E+02  0.17831130737E+02  0.13299292773E+02  0.17423705932E+03  0.17120000000E+03 0.  0.
        998    1    1    2    0    0  0.46700786125E+01 -0.22654821378E+02  0.14509354521E+04  0.14511542774E+04  0.10000000000E+02 0. -1.
</event>
<event>
 5    1  0.9130022E-009  0.3855767E+03  0.7957747E-01  0.3427230E+00
         13   -1    0    0    0    0  0.00000000000E+00  0.00000000000E+00  0.14999999963E+04  0.15000000000E+04  0.10566000000E+00 0.  1.
        994   -1    0    0    0    0 -0.00000000000E+00 -0.00000000000E+00  0.11368683772E-12  0.17120000000E+03  0.17120000000E+03 0.  0.
         13    1    1    2    0    0  0.13552775840E+02  0.87982530775E+01  0.87943668783E+02  0.89415809750E+02  0.10566000000E+00 0.  1.
        994    1    1    2    0    0 -0.16591667017E+02 -0.18066671744E+02  0.33216294650E+01  0.17298023374E+03  0.17120000000E+03 0.  0.
        998    1    1    2    0    0  0.30388911770E+01  0.92684186664E+01  0.14087346980E+04  0.14088039565E+04  0.10000000000E+02 0.  1.
</event>
<event>
 5    1  0.9130022E-009  0.3777566E+03  0.7957747E-01  0.3460985E+00
         13   -1    0    0    0    0  0.00000000000E+00  0.00000000000E+00  0.14999999963E+04  0.15000000000E+04  0.10566000000E+00 0.  1.
        994   -1    0    0    0    0 -0.00000000000E+00 -0.00000000000E+00  0.11368683772E-12  0.17120000000E+03  0.17120000000E+03 0.  0.
         13    1    1    2    0    0  0.16410512418E+02 -0.60034796269E+01  0.26514912984E+02  0.31755290268E+02  0.10566000000E+00 0.  1.
        994    1    1    2    0    0 -0.14774020134E+02  0.57037076867E+01  0.61150303554E+01  0.17203963947E+03  0.17120000000E+03 0.  0.
        998    1    1    2    0    0 -0.16364922839E+01  0.29977194014E+00  0.14673700529E+04  0.14674050703E+04  0.10000000000E+02 0.  1.
</event>
<event>
 5    1  0.9130022E-009  0.3747363E+03  0.7957747E-01  0.3474403E+00
         13   -1    0    0    0    0  0.00000000000E+00  0.00000000000E+00  0.14999999963E+04  0.15000000000E+04  0.10566000000E+00 0.  1.
        994   -1    0    0    0    0 -0.00000000000E+00 -0.00000000000E+00  0.11368683772E-12  0.17120000000E+03  0.17120000000E+03 0.  0.
         13    1    1    2    0    0 -0.57179332118E+02  0.80971559673E+02  0.53653445711E+03  0.54561442826E+03  0.10566000000E+00 0.  1.
        994    1    1    2    0    0  0.17485973565E+02 -0.42686900506E+01  0.14617990310E+02  0.17276315182E+03  0.17120000000E+03 0.  0.
        998    1    1    2    0    0  0.39693358553E+02 -0.76702869622E+02  0.94884754886E+03  0.95282241992E+03  0.10000000000E+02 0.  1.
</event>
<event>
 5    1  0.9130022E-009  0.3847870E+03  0.7957747E-01  0.3430576E+00
         13   -1    0    0    0    0  0.00000000000E+00  0.00000000000E+00  0.14999999963E+04  0.15000000000E+04  0.10566000000E+00 0. -1.
        994   -1    0    0    0    0 -0.00000000000E+00 -0.00000000000E+00  0.11368683772E-12  0.17120000000E+03  0.17120000000E+03 0.  0.
         13    1    1    2    0    0 -0.42580749431E+00  0.10602113097E+02  0.32733397399E+02  0.34410355759E+02  0.10566000000E+00 0. -1.
        994    1    1    2    0    0 -0.99903354349E+01 -0.35563156642E+01  0.21060885325E+01  0.17154104405E+03  0.17120000000E+03 0.  0.
        998    1    1    2    0    0  0.10416142929E+02 -0.70457974328E+01  0.14651605103E+04  0.14652486002E+04  0.10000000000E+02 0. -1.
</event>
<event>
 5    1  0.9130022E-009  0.3836973E+03  0.7957747E-01  0.3435216E+00
         13   -1    0    0    0    0  0.00000000000E+00  0.00000000000E+00  0.14999999963E+04  0.15000000000E+04  0.10566000000E+00 0.  1.
        994   -1    0    0    0    0 -0.00000000000E+00 -0.00000000000E+00  0.11368683772E-12  0.17120000000E+03  0.17120000000E+03 0.  0.
         13    1    1    2    0    0  0.10804329753E+02  0.10203630490E+02  0.49073898240E+02  0.51274811254E+02  0.10566000000E+00 0.  1.
        994    1    1    2    0    0  0.19096360560E+00 -0.71416575881E+01  0.24468642155E+01  0.17136646955E+03  0.17120000000E+03 0.  0.
        998    1    1    2    0    0 -0.10995293359E+02 -0.30619729022E+01  0.14484792338E+04  0.14485587192E+04  0.10000000000E+02 0.  1.
</event>
<event>
 5    1  0.9130022E-009  0.3830306E+03  0.7957747E-01  0.3438068E+00
         13   -1    0    0    0    0  0.00000000000E+00  0.00000000000E+00  0.14999999963E+04  0.15000000000E+04  0.10566000000E+00 0. -1.
        994   -1    0    0    0    0 -0.00000000000E+00 -0.00000000000E+00  0.11368683772E-12  0.17120000000E+03  0.17120000000E+03 0.  0.
         13    1    1    2    0    0  0.50717610420E+01 -0.13081948168E+02  0.39402221787E+02  0.41825905534E+02  0.10566000000E+00 0. -1.
        994    1    1    2    0    0  0.96880931242E+01 -0.35170632532E+01  0.29627636630E+01  0.17153555565E+03  0.17120000000E+03 0.  0.
        998    1    1    2    0    0 -0.14759854166E+02  0.16599011422E+02  0.14576350108E+04  0.14578385388E+04  0.10000000000E+02 0. -1.
</event>
<event>
 5    1  0.9130022E-009  0.2976704E+03  0.7957747E-01  0.3912792E+00
         13   -1    0    0    0    0  0.00000000000E+00  0.00000000000E+00  0.14999999963E+04  0.15000000000E+04  0.10566000000E+00 0.  1.
        994   -1    0    0    0    0 -0.00000000000E+00 -0.00000000000E+00  0.11368683772E-12  0.17120000000E+03  0.17120000000E+03 0.  0.
         13    1    1    2    0    0 -0.15456621429E+03  0.98813488607E+02  0.63670822260E+03  0.66261013577E+03  0.10566000000E+00 0.  1.
        994    1    1    2    0    0  0.14887037898E+03 -0.92182146543E+02  0.13395003499E+03  0.27912719279E+03  0.17120000000E+03 0.  0.
        998    1    1    2    0    0  0.56958353047E+01 -0.66313420641E+01  0.72934173869E+03  0.72946267145E+03  0.10000000000E+02 0.  1.
</event>
<event>
 5    1  0.9130022E-009  0.3743936E+03  0.7957747E-01  0.3475939E+00
         13   -1    0    0    0    0  0.00000000000E+00  0.00000000000E+00  0.14999999963E+04  0.15000000000E+04  0.10566000000E+00 0. -1.
        994   -1    0    0    0    0 -0.00000000000E+00 -0.00000000000E+00  0.11368683772E-12  0.17120000000E+03  0.17120000000E+03 0.  0.
         13    1    1    2    0    0 -0.11031364405E+02  0.19815810180E+02  0.37551515044E+02  0.43868950066E+02  0.10566000000E+00 0. -1.
        994    1    1    2    0    0 -0.20079019111E+02  0.12460026748E+02  0.88948666582E+01  0.17305195153E+03  0.17120000000E+03 0.  0.
        998    1    1    2    0    0  0.31110383516E+02 -0.32275836928E+02  0.14535536146E+04  0.14542790984E+04  0.10000000000E+02 0. -1.
</event>
<event>
 5    1  0.9130022E-009  0.3837585E+03  0.7957747E-01  0.3434955E+00
         13   -1    0    0    0    0  0.00000000000E+00  0.00000000000E+00  0.14999999963E+04  0.15000000000E+04  0.10566000000E+00 0.  1.
        994   -1    0    0    0    0 -0.00000000000E+00 -0.00000000000E+00  0.11368683772E-12  0.17120000000E+03  0.17120000000E+03 0.  0.
         13    1    1    2    0    0  0.11664582823E+02 -0.22471474642E+02  0.13846726780E+03  0.14076301034E+03  0.10566000000E+00 0.  1.
        994    1    1    2    0    0 -0.69310955714E-01  0.21033558278E+02  0.37099860532E+01  0.17252715547E+03  0.17120000000E+03 0.  0.
        998    1    1    2    0    0 -0.11595271868E+02  0.14379163638E+01  0.13578227424E+04  0.13579098342E+04  0.10000000000E+02 0.  1.
</event>
<event>
 5    1  0.9130022E-009  0.3756908E+03  0.7957747E-01  0.3470139E+00
         13   -1    0    0    0    0  0.00000000000E+00  0.00000000000E+00  0.14999999963E+04  0.15000000000E+04  0.10566000000E+00 0.  1.
        994   -1    0    0    0    0 -0.00000000000E+00 -0.00000000000E+00  0.11368683772E-12  0.17120000000E+03  0.17120000000E+03 0.  0.
         13    1    1    2    0    0 -0.44439435547E+02 -0.38422777868E+02  0.31847919986E+03  0.32385210390E+03  0.10566000000E+00 0.  1.
        994    1    1    2    0    0 -0.80325097706E+01  0.32759702947E+02  0.10192497737E+02  0.17478857617E+03  0.17120000000E+03 0.  0.
        998    1    1    2    0    0  0.52471945317E+02  0.56630749212E+01  0.11713282987E+04  0.11725593199E+04  0.10000000000E+02 0.  1.
</event>
<event>
 5    1  0.9130022E-009  0.3841087E+03  0.7957747E-01  0.3433461E+00
         13   -1    0    0    0    0  0.00000000000E+00  0.00000000000E+00  0.14999999963E+04  0.15000000000E+04  0.10566000000E+00 0. -1.
        994   -1    0    0    0    0 -0.00000000000E+00 -0.00000000000E+00  0.11368683772E-12  0.17120000000E+03  0.17120000000E+03 0.  0.
         13    1    1    2    0    0 -0.47041581403E+01 -0.11201959493E+02  0.34593730036E+02  0.36665383158E+02  0.10566000000E+00 0. -1.
        994    1    1    2    0    0 -0.11126652305E+01  0.13025317581E+02  0.26371731721E+01  0.17171864082E+03  0.17120000000E+03 0.  0.
        998    1    1    2    0    0  0.58168233708E+01 -0.18233580879E+01  0.14627690931E+04  0.14628159760E+04  0.10000000000E+02 0. -1.
</event>
<event>
 5    1  0.9130022E-009  0.3834366E+03  0.7957747E-01  0.3436330E+00
         13   -1    0    0    0    0  0.00000000000E+00  0.00000000000E+00  0.14999999963E+04  0.15000000000E+04  0.10566000000E+00 0.  1.
        994   -1    0    0    0    0 -0.00000000000E+00 -0.00000000000E+00  0.11368683772E-12  0.17120000000E+03  0.17120000000E+03 0.  0.
         13    1    1    2    0    0  0.45401102977E+01 -0.18336500803E+02  0.72165726424E+02  0.74597205696E+02  0.10566000000E+00 0.  1.
        994    1    1    2    0    0 -0.26982156156E+01  0.15126198868E+02  0.31890700278E+01  0.17191769085E+03  0.17120000000E+03 0.  0.
        998    1    1    2    0    0 -0.18418946822E+01  0.32103019356E+01  0.14246451998E+04  0.14246851035E+04  0.10000000000E+02 0.  1.
</event>
<event>
 5    1  0.9130022E-009  0.3715796E+03  0.7957747E-01  0.3488663E+00
         13   -1    0    0    0    0  0.00000000000E+00  0.00000000000E+00  0.14999999963E+04  0.15000000000E+04  0.10566000000E+00 0. -1.
        994   -1    0    0    0    0 -0.00000000000E+00 -0.00000000000E+00  0.11368683772E-12  0.17120000000E+03  0.17120000000E+03 0.  0.
         13    1    1    2    0    0 -0.41725768399E+01  0.15465700114E+02  0.11338725324E+02  0.19625904654E+02  0.10566000000E+00 0. -1.
        994    1    1    2    0    0  0.40348547858E+01 -0.14857890480E+02  0.92613047677E+01  0.17214020079E+03  0.17120000000E+03 0.  0.
        998    1    1    2    0    0  0.13772205414E+00 -0.60780963398E+00  0.14793999662E+04  0.14794338946E+04  0.10000000000E+02 0. -1.
</event>
<event>
 5    1  0.9130022E-009  0.3858745E+03  0.7957747E-01  0.3425972E+00
         13   -1    0    0    0    0  0.00000000000E+00  0.00000000000E+00  0.14999999963E+04  0.15000000000E+04  0.10566000000E+00 0.  1.
        994   -1    0    0    0    0 -0.00000000000E+00 -0.00000000000E+00  0.11368683772E-12  0.17120000000E+03  0.17120000000E+03 0.  0.
         13    1    1    2    0    0  0.12664291311E+02 -0.63878507812E+01  0.79356368061E+02  0.80614100677E+02  0.10566000000E+00 0.  1.
        994    1    1    2    0    0 -0.17111563338E+02  0.53195511031E+01  0.22503090837E+01  0.17214995531E+03  0.17120000000E+03 0.  0.
        998    1    1    2    0    0  0.44472720272E+01  0.10682996781E+01  0.14183933191E+04  0.14184359440E+04  0.10000000000E+02 0.  1.
</event>
<event>
 5    1  0.9130022E-009  0.3853819E+03  0.7957747E-01  0.3428054E+00
         13   -1    0    0    0    0  0.00000000000E+00  0.00000000000E+00  0.14999999963E+04  0.15000000000E+04  0.10566000000E+00 0.  1.
        994   -1    0    0    0    0 -0.00000000000E+00 -0.00000000000E+00  0.11368683772E-12  0.17120000000E+03  0.17120000000E+03 0.  0.
         13    1    1    2    0    0 -0.58984168484E+01  0.13407932402E+02  0.86476430574E+02  0.87708313069E+02  0.10566000000E+00 0.  1.
        994    1    1    2    0    0 -0.25967768391E+02 -0.31041130275E+01  0.36904063881E+01  0.17322534345E+03  0.17120000000E+03 0.  0.
        998    1    1    2    0    0  0.31866185239E+02 -0.10303819374E+02  0.14098331593E+04  0.14102663435E+04  0.10000000000E+02 0.  1.
</event>
<event>
 5    1  0.9130022E-009  0.3851687E+03  0.7957747E-01  0.3428957E+00
         13   -1    0    0    0    0  0.00000000000E+00  0.00000000000E+00  0.14999999963E+04  0.15000000000E+04  0.10566000000E+00 0.  1.
        994   -1    0    0    0    0 -0.00000000000E+00 -0.00000000000E+00  0.11368683772E-12  0.17120000000E+03  0.17120000000E+03 0.  0.
         13    1    1    2    0    0  0.10745747502E+02 -0.69415052576E+01  0.52005858393E+02  0.53556288667E+02  0.10566000000E+00 0.  1.
        994    1    1    2    0    0 -0.85894559148E+01  0.82507896582E+01  0.20128025217E+01  0.17162559732E+03  0.17120000000E+03 0.  0.
        998    1    1    2    0    0 -0.21562915870E+01 -0.13092844006E+01  0.14459813354E+04  0.14460181140E+04  0.10000000000E+02 0.  1.
</event>
<event>
 5    1  0.9130022E-009  0.3782396E+03  0.7957747E-01  0.3458860E+00
         13   -1    0    0    0    0  0.00000000000E+00  0.00000000000E+00  0.14999999963E+04  0.15000000000E+04  0.10566000000E+00 0.  1.
        994   -1    0    0    0    0 -0.00000000000E+00 -0.00000000000E+00  0.11368683772E-12  0.17120000000E+03  0.17120000000E+03 0.  0.
         13    1    1    2    0    0  0.97516224148E+00 -0.29347547178E+02  0.78912834408E+02  0.84199026509E+02  0.10566000000E+00 0.  1.
        994    1    1    2    0    0 -0.12231825252E+01  0.32954544161E+02  0.86898180469E+01  0.17456360186E+03  0.17120000000E+03 0.  0.
        998    1    1    2    0    0  0.24802028367E+00 -0.36069969826E+01  0.14123973438E+04  0.14124373716E+04  0.10000000000E+02 0.  1.
</event>
<event>
 5    1  0.9130022E-009  0.3737525E+03  0.7957747E-01  0.3478821E+00
         13   -1    0    0    0    0  0.00000000000E+00  0.00000000000E+00  0.14999999963E+04  0.15000000000E+04  0.10566000000E+00 0. -1.
        994   -1    0    0    0    0 -0.00000000000E+00 -0.00000000000E+00  0.11368683772E-12  0.17120000000E+03  0.17120000000E+03 0.  0.
         13    1    1    2    0    0  0.18926732102E+02  0.11516336883E+02  0.30081790177E+02  0.37360038377E+02  0.10566000000E+00 0. -1.
        994    1    1    2    0    0 -0.31815371877E+02  0.13385684240E+02  0.11398479184E+02  0.17501645568E+03  0.17120000000E+03 0.  0.
        998    1    1    2    0    0  0.12888639776E+02 -0.24902021123E+02  0.14585197269E+04  0.14588235059E+04  0.10000000000E+02 0. -1.
</event>
<event>
 5    1  0.9130022E-009  0.3820351E+03  0.7957747E-01  0.3442345E+00
         13   -1    0    0    0    0  0.00000000000E+00  0.00000000000E+00  0.14999999963E+04  0.15000000000E+04  0.10566000000E+00 0.  1.
        994   -1    0    0    0    0 -0.00000000000E+00 -0.00000000000E+00  0.11368683772E-12  0.17120000000E+03  0.17120000000E+03 0.  0.
         13    1    1    2    0    0 -0.25681363277E+02 -0.26047251592E+02  0.21959207800E+03  0.22261779718E+03  0.10566000000E+00 0.  1.
        994    1    1    2    0    0  0.13998933350E+02  0.11938727937E+02  0.42341773406E+01  0.17223783445E+03  0.17120000000E+03 0.  0.
        998    1    1    2    0    0  0.11682429927E+02  0.14108523654E+02  0.12761737409E+04  0.12763443684E+04  0.10000000000E+02 0.  1.
</event>
<event>
 5    1  0.9130022E-009  0.3818518E+03  0.7957747E-01  0.3443135E+00
         13   -1    0    0    0    0  0.00000000000E+00  0.00000000000E+00  0.14999999963E+04  0.15000000000E+04  0.10566000000E+00 0.  1.
        994   -1    0    0    0    0 -0.00000000000E+00 -0.00000000000E+00  0.11368683772E-12  0.17120000000E+03  0.17120000000E+03 0.  0.
         13    1    1    2    0    0 -0.10284131972E+02  0.24196696035E+02  0.10195406633E+03  0.10528953545E+03  0.10566000000E+00 0.  1.
        994    1    1    2    0    0  0.30908230650E+02 -0.13850003841E+02  0.70221226682E+01  0.17465935857E+03  0.17120000000E+03 0.  0.
        998    1    1    2    0    0 -0.20624098679E+02 -0.10346692194E+02  0.13910238073E+04  0.13912511060E+04  0.10000000000E+02 0.  1.
</event>
<event>
 5    1  0.9130022E-009  0.3845037E+03  0.7957747E-01  0.3431780E+00
         13   -1    0    0    0    0  0.00000000000E+00  0.00000000000E+00  0.14999999963E+04  0.15000000000E+04  0.10566000000E+00 0.  1.
        994   -1    0    0    0    0 -0.00000000000E+00 -0.00000000000E+00  0.11368683772E-12  0.17120000000E+03  0.17120000000E+03 0.  0.
         13    1    1    2    0    0 -0.14632989090E+02 -0.73756303833E+01  0.70269816447E+02  0.72155267034E+02  0.10566000000E+00 0.  1.
        994    1    1    2    0    0  0.10580057968E+02  0.81023493046E+01  0.24619317704E+01  0.17173551409E+03  0.17120000000E+03 0.  0.
        998    1    1    2    0    0  0.40529311212E+01 -0.72671892130E+00  0.14272682481E+04  0.14273092189E+04  0.10000000000E+02 0.  0.
</event>
<event>
 5    1  0.9130022E-009  0.3798201E+03  0.7957747E-01  0.3451942E+00
         13   -1    0    0    0    0  0.00000000000E+00  0.00000000000E+00  0.14999999963E+04  0.15000000000E+04  0.10566000000E+00 0.  1.
        994   -1    0    0    0    0 -0.00000000000E+00 -0.00000000000E+00  0.11368683772E-12  0.17120000000E+03  0.17120000000E+03 0.  0.
         13    1    1    2    0    0 -0.13616612609E+02 -0.23584139437E+02  0.90470875218E+02  0.94480760998E+02  0.10566000000E+00 0.  1.
        994    1    1    2    0    0  0.19306953012E+02 -0.26518304602E+01  0.54953600962E+01  0.17239324123E+03  0.17120000000E+03 0.  0.
        998    1    1    2    0    0 -0.56903404033E+01  0.26235969897E+02  0.14040337610E+04  0.14043259978E+04  0.10000000000E+02 0.  1.
</event>
<event>
 5    1  0.9130022E-009  0.3857130E+03  0.7957747E-01  0.3426654E+00
         13   -1    0    0    0    0  0.00000000000E+00  0.00000000000E+00  0.14999999963E+04  0.15000000000E+04  0.10566000000E+00 0.  1.
        994   -1    0    0    0    0 -0.00000000000E+00 -0.00000000000E+00  0.11368683772E-12  0.17120000000E+03  0.17120000000E+03 0.  0.
         13    1    1    2    0    0 -0.60942897442E+01  0.11308077148E+02  0.65353793583E+02  0.66604372799E+02  0.10566000000E+00 0.  1.
        994    1    1    2    0    0  0.91979913281E+01 -0.42331685981E+01  0.16130390856E+01  0.17150674814E+03  0.17120000000E+03 0.  0.
        998    1    1    2    0    0 -0.31037015839E+01 -0.70749085496E+01  0.14330331636E+04  0.14330888791E+04  0.10000000000E+02 0.  1.
</event>
<event>
 5    1  0.9130022E-009  0.3821091E+03  0.7957747E-01  0.3442026E+00
         13   -1    0    0    0    0  0.00000000000E+00  0.00000000000E+00  0.14999999963E+04  0.15000000000E+04  0.10566000000E+00 0.  1.
        994   -1    0    0    0    0 -0.00000000000E+00 -0.00000000000E+00  0.11368683772E-12  0.17120000000E+03  0.17120000000E+03 0.  0.
         13    1    1    2    0    0 -0.16649153691E+02 -0.10346929747E+01  0.43763976591E+02  0.46835475008E+02  0.10566000000E+00 0.  1.
        994    1    1    2    0    0  0.13467920810E+02  0.48197977110E+01  0.37518489565E+01  0.17183751544E+03  0.17120000000E+03 0.  0.
        998    1    1    2    0    0  0.31812328814E+01 -0.37851047363E+01  0.14524841707E+04  0.14525270096E+04  0.10000000000E+02 0.  1.
</event>
<event>
 5    1  0.9130022E-009  0.3840590E+03  0.7957747E-01  0.3433673E+00
         13   -1    0    0    0    0  0.00000000000E+00  0.00000000000E+00  0.14999999963E+04  0.15000000000E+04  0.10566000000E+00 0. -1.
        994   -1    0    0    0    0 -0.00000000000E+00 -0.00000000000E+00  0.11368683772E-12  0.17120000000E+03  0.17120000000E+03 0.  0.
         13    1    1    2    0    0  0.21568185671E+02  0.14014163609E+02  0.14597611362E+03  0.14822489780E+03  0.10566000000E+00 0. -1.
        994    1    1    2    0    0 -0.18201694742E+02 -0.16812587652E+02  0.41259444094E+01  0.17303302636E+03  0.17120000000E+03 0.  0.
        998    1    1    2    0    0 -0.33664909294E+01  0.27984240431E+01  0.13498979382E+04  0.13499420758E+04  0.10000000000E+02 0. -1.
</event>
<event>
 5    1  0.9130022E-009  0.3799471E+03  0.7957747E-01  0.3451389E+00
         13   -1    0    0    0    0  0.00000000000E+00  0.00000000000E+00  0.14999999963E+04  0.15000000000E+04  0.10566000000E+00 0.  1.
        994   -1    0    0    0    0 -0.00000000000E+00 -0.00000000000E+00  0.11368683772E-12  0.17120000000E+03  0.17120000000E+03 0.  0.
         13    1    1    2    0    0  0.39433368687E+01 -0.19515472567E+02  0.47804554193E+02  0.51785037808E+02  0.10566000000E+00 0.  1.
        994    1    1    2    0    0 -0.93631603621E+01  0.12871834733E+01  0.44585490758E+01  0.17151864118E+03  0.17120000000E+03 0.  0.
        998    1    1    2    0    0  0.54198234935E+01  0.18228289094E+02  0.14477368930E+04  0.14478963210E+04  0.10000000000E+02 0.  1.
</event>
<event>
 5    1  0.9130022E-009  0.3821550E+03  0.7957747E-01  0.3441828E+00
         13   -1    0    0    0    0  0.00000000000E+00  0.00000000000E+00  0.14999999963E+04  0.15000000000E+04  0.10566000000E+00 0. -1.
        994   -1    0    0    0    0 -0.00000000000E+00 -0.00000000000E+00  0.11368683772E-12  0.17120000000E+03  0.17120000000E+03 0.  0.
         13    1    1    2    0    0 -0.17971756246E+02 -0.26944144168E+02  0.17532439871E+03  0.17829084910E+03  0.10566000000E+00 0. -1.
        994    1    1    2    0    0  0.11926483884E+02  0.11139139933E+02  0.39337313220E+01  0.17202103272E+03  0.17120000000E+03 0.  0.
        998    1    1    2    0    0  0.60452723624E+01  0.15805004235E+02  0.13207418662E+04  0.13208881182E+04  0.10000000000E+02 0. -1.
</event>
<event>
 5    1  0.9130022E-009  0.3822021E+03  0.7957747E-01  0.3441626E+00
         13   -1    0    0    0    0  0.00000000000E+00  0.00000000000E+00  0.14999999963E+04  0.15000000000E+04  0.10566000000E+00 0.  1.
        994   -1    0    0    0    0 -0.00000000000E+00 -0.00000000000E+00  0.11368683772E-12  0.17120000000E+03  0.17120000000E+03 0.  0.
         13    1    1    2    0    0  0.17187794156E+02  0.19257628387E+02  0.11441340359E+03  0.11728902167E+03  0.10566000000E+00 0.  1.
        994    1    1    2    0    0 -0.83047373876E+00 -0.10474367065E+02  0.33921474843E+01  0.17155567235E+03  0.17120000000E+03 0.  0.
        998    1    1    2    0    0 -0.16357320417E+02 -0.87832613212E+01  0.13821944452E+04  0.13823553060E+04  0.10000000000E+02 0.  1.
</event>
<event>
 5    1  0.9130022E-009  0.3691132E+03  0.7957747E-01  0.3499976E+00
         13   -1    0    0    0    0  0.00000000000E+00  0.00000000000E+00  0.14999999963E+04  0.15000000000E+04  0.10566000000E+00 0. -1.
        994   -1    0    0    0    0 -0.00000000000E+00 -0.00000000000E+00  0.11368683772E-12  0.17120000000E+03  0.17120000000E+03 0.  0.
         13    1    1    2    0    0 -0.17479685196E+02 -0.16152955663E+02  0.22704852558E+02  0.32893447142E+02  0.10566000000E+00 0. -1.
        994    1    1    2    0    0  0.64304809610E+01  0.16635779071E+02  0.11580044014E+02  0.17251561567E+03  0.17120000000E+03 0.  0.
        998    1    1    2    0    0  0.11049204235E+02 -0.48282340799E+00  0.14657150997E+04  0.14657909372E+04  0.10000000000E+02 0. -1.
</event>
<event>
 5    1  0.9130022E-009  0.4414042E+03  0.7957747E-01  0.3220820E+00
         13   -1    0    0    0    0  0.00000000000E+00  0.00000000000E+00  0.14999999963E+04  0.15000000000E+04  0.10566000000E+00 0. -1.
        994   -1    0    0    0    0 -0.00000000000E+00 -0.00000000000E+00  0.11368683772E-12  0.17120000000E+03  0.17120000000E+03 0.  0.
         13    1    1    2    0    0  0.50599059638E+02 -0.47049512277E+02  0.26421668174E+02  0.73973219173E+02  0.10566000000E+00 0. -1.
        994    1    1    2    0    0 -0.68617414646E+01  0.58417494091E+02  0.71890760950E+02  0.19477527723E+03  0.17120000000E+03 0.  0.
        998    1    1    2    0    0 -0.43737318173E+02 -0.11367981815E+02  0.14016875672E+04  0.14024515036E+04  0.10000000000E+02 0. -1.
</event>
<event>
 5    1  0.9130022E-009  0.3843786E+03  0.7957747E-01  0.3432312E+00
         13   -1    0    0    0    0  0.00000000000E+00  0.00000000000E+00  0.14999999963E+04  0.15000000000E+04  0.10566000000E+00 0.  1.
        994   -1    0    0    0    0 -0.00000000000E+00 -0.00000000000E+00  0.11368683772E-12  0.17120000000E+03  0.17120000000E+03 0.  0.
         13    1    1    2    0    0  0.17666717223E+02  0.39151854911E+01  0.79637904387E+02  0.81667916308E+02  0.10566000000E+00 0.  1.
        994    1    1    2    0    0 -0.19984815961E+02 -0.35691806950E+01  0.32982316271E+01  0.17243100142E+03  0.17120000000E+03 0.  0.
        998    1    1    2    0    0  0.23180987377E+01 -0.34600479608E+00  0.14170638603E+04  0.14171010823E+04  0.10000000000E+02 0.  1.
</event>
<event>
 5    1  0.9130022E-009  0.3769937E+03  0.7957747E-01  0.3464354E+00
         13   -1    0    0    0    0  0.00000000000E+00  0.00000000000E+00  0.14999999963E+04  0.15000000000E+04  0.10566000000E+00 0.  1.
        994   -1    0    0    0    0 -0.00000000000E+00 -0.00000000000E+00  0.11368683772E-12  0.17120000000E+03  0.17120000000E+03 0.  0.
         13    1    1    2    0    0 -0.12028724738E+03 -0.43483943527E+01  0.64653207318E+03  0.65764098354E+03  0.10566000000E+00 0.  1.
        994    1    1    2    0    0  0.12606213427E+03 -0.84772447080E+01  0.61612274610E+02  0.22151532172E+03  0.17120000000E+03 0.  0.
        998    1    1    2    0    0 -0.57748868867E+01  0.12825639061E+02  0.79185564849E+03  0.79204369474E+03  0.10000000000E+02 0. -1.
</event>
<event>
 5    1  0.9130022E-009  0.3800978E+03  0.7957747E-01  0.3450733E+00
         13   -1    0    0    0    0  0.00000000000E+00  0.00000000000E+00  0.14999999963E+04  0.15000000000E+04  0.10566000000E+00 0.  1.
        994   -1    0    0    0    0 -0.00000000000E+00 -0.00000000000E+00  0.11368683772E-12  0.17120000000E+03  0.17120000000E+03 0.  0.
         13    1    1    2    0    0 -0.67308063905E+02 -0.85456490323E+02  0.27058743506E+03  0.29163463166E+03  0.10566000000E+00 0.  1.
        994    1    1    2    0    0  0.71163323476E+02  0.96524513850E+02  0.70561353678E+02  0.22061175176E+03  0.17120000000E+03 0.  0.
        998    1    1    2    0    0 -0.38552595709E+01 -0.11068023527E+02  0.11588512075E+04  0.11589536166E+04  0.10000000000E+02 0.  1.
</event>
<event>
 5    1  0.9130022E-009  0.3795113E+03  0.7957747E-01  0.3453289E+00
         13   -1    0    0    0    0  0.00000000000E+00  0.00000000000E+00  0.14999999963E+04  0.15000000000E+04  0.10566000000E+00 0.  1.
        994   -1    0    0    0    0 -0.00000000000E+00 -0.00000000000E+00  0.11368683772E-12  0.17120000000E+03  0.17120000000E+03 0.  0.
         13    1    1    2    0    0 -0.94061711347E+01  0.12932266349E+02  0.28537881158E+02  0.32713015657E+02  0.10566000000E+00 0.  1.
        994    1    1    2    0    0  0.15953799061E+02  0.14843567889E+02  0.59716189956E+01  0.17268455474E+03  0.17120000000E+03 0.  0.
        998    1    1    2    0    0 -0.65476279267E+01 -0.27775834238E+02  0.14654904961E+04  0.14658024296E+04  0.10000000000E+02 0.  1.
</event>
<event>
 5    1  0.9130022E-009  0.3790935E+03  0.7957747E-01  0.3455115E+00
         13   -1    0    0    0    0  0.00000000000E+00  0.00000000000E+00  0.14999999963E+04  0.15000000000E+04  0.10566000000E+00 0.  1.
        994   -1    0    0    0    0 -0.00000000000E+00 -0.00000000000E+00  0.11368683772E-12  0.17120000000E+03  0.17120000000E+03 0.  0.
         13    1    1    2    0    0  0.26361293176E+02 -0.11836578979E+02  0.19833358606E+02  0.35048475822E+02  0.10566000000E+00 0.  1.
        994    1    1    2    0    0 -0.19022716884E+02  0.97387202729E+01  0.17481265932E+02  0.17341205578E+03  0.17120000000E+03 0.  0.
        998    1    1    2    0    0 -0.73385762917E+01  0.20978587064E+01  0.14626853717E+04  0.14627394684E+04  0.10000000000E+02 0.  1.
</event>
<event>
 5    1  0.9130022E-009  0.3831103E+03  0.7957747E-01  0.3437726E+00
         13   -1    0    0    0    0  0.00000000000E+00  0.00000000000E+00  0.14999999963E+04  0.15000000000E+04  0.10566000000E+00 0. -1.
        994   -1    0    0    0    0 -0.00000000000E+00 -0.00000000000E+00  0.11368683772E-12  0.17120000000E+03  0.17120000000E+03 0.  0.
         13    1    1    2    0    0  0.22719705122E+02 -0.41357258678E+01  0.94596776390E+02  0.97374793950E+02  0.10566000000E+00 0. -1.
        994    1    1    2    0    0 -0.27662400483E+02  0.58891628171E+01  0.52225232933E+01  0.17359897865E+03  0.17120000000E+03 0.  0.
        998    1    1    2    0    0  0.49426953612E+01 -0.17534369493E+01  0.14001806966E+04  0.14002262274E+04  0.10000000000E+02 0. -1.
</event>
<event>
 5    1  0.9130022E-009  0.3800272E+03  0.7957747E-01  0.3451040E+00
         13   -1    0    0    0    0  0.00000000000E+00  0.00000000000E+00  0.14999999963E+04  0.15000000000E+04  0.10566000000E+00 0. -1.
        994   -1    0    0    0    0 -0.00000000000E+00 -0.00000000000E+00  0.11368683772E-12  0.17120000000E+03  0.17120000000E+03 0.  0.
         13    1    1    2    0    0 -0.49576936798E+02 -0.41196570667E+01  0.24993752284E+03  0.25484038284E+03  0.10566000000E+00 0. -1.
        994    1    1    2    0    0  0.49584411286E+02  0.13186940838E+02  0.12969578880E+02  0.17919307807E+03  0.17120000000E+03 0.  0.
        998    1    1    2    0    0 -0.74744883195E-02 -0.90672837713E+01  0.12370928946E+04  0.12371665391E+04  0.10000000000E+02 0. -1.
</event>
<event>
 5    1  0.9130022E-009  0.3821767E+03  0.7957747E-01  0.3441735E+00
         13   -1    0    0    0    0  0.00000000000E+00  0.00000000000E+00  0.14999999963E+04  0.15000000000E+04  0.10566000000E+00 0.  1.
        994   -1    0    0    0    0 -0.00000000000E+00 -0.00000000000E+00  0.11368683772E-12  0.17120000000E+03  0.17120000000E+03 0.  0.
         13    1    1    2    0    0 -0.20273319421E+01  0.13120619502E+02  0.28029111813E+02  0.31014561161E+02  0.10566000000E+00 0.  1.
        994    1    1    2    0    0  0.23890190294E+01 -0.72549548989E+01  0.32320261755E+01  0.17140078114E+03  0.17120000000E+03 0.  0.
        998    1    1    2    0    0 -0.36168708729E+00 -0.58656646035E+01  0.14687388583E+04  0.14687846577E+04  0.10000000000E+02 0.  1.
</event>
<event>
 5    1  0.9130022E-009  0.3788883E+03  0.7957747E-01  0.3456013E+00
         13   -1    0    0    0    0  0.00000000000E+00  0.00000000000E+00  0.14999999963E+04  0.15000000000E+04  0.10566000000E+00 0. -1.
        994   -1    0    0    0    0 -0.00000000000E+00 -0.00000000000E+00  0.11368683772E-12  0.17120000000E+03  0.17120000000E+03 0.  0.
         13    1    1    2    0    0 -0.32450053198E+02  0.40816620507E+01  0.10444738554E+03  0.10944831396E+03  0.10566000000E+00 0. -1.
        994    1    1    2    0    0  0.33224071943E+02 -0.11519520030E+02  0.88554202381E+01  0.17499827647E+03  0.17120000000E+03 0.  0.
        998    1    1    2    0    0 -0.77401874429E+00  0.74378579793E+01  0.13866971905E+04  0.13867534096E+04  0.10000000000E+02 0. -1.
</event>
<event>
 5    1  0.9130022E-009  0.3712761E+03  0.7957747E-01  0.3490046E+00
         13   -1    0    0    0    0  0.00000000000E+00  0.00000000000E+00  0.14999999963E+04  0.15000000000E+04  0.10566000000E+00 0. -1.
        994   -1    0    0    0    0 -0.00000000000E+00 -0.00000000000E+00  0.11368683772E-12  0.17120000000E+03  0.17120000000E+03 0.  0.
         13    1    1    2    0    0  0.17520851700E+02 -0.21756700108E+01  0.14041614909E+02  0.22558632440E+02  0.10566000000E+00 0. -1.
        994    1    1    2    0    0 -0.22210635602E+02 -0.11909755564E+01  0.10308529314E+02  0.17294634004E+03  0.17120000000E+03 0.  0.
        998    1    1    2    0    0  0.46897839019E+01  0.33666455672E+01  0.14756498521E+04  0.14756950275E+04  0.10000000000E+02 0. -1.
</event>
<event>
 5    1  0.9130022E-009  0.3685104E+03  0.7957747E-01  0.3502765E+00
         13   -1    0    0    0    0  0.00000000000E+00  0.00000000000E+00  0.14999999963E+04  0.15000000000E+04  0.10566000000E+00 0.  1.
        994   -1    0    0    0    0 -0.00000000000E+00 -0.00000000000E+00  0.11368683772E-12  0.17120000000E+03  0.17120000000E+03 0.  0.
         13    1    1    2    0    0 -0.17586156737E+02 -0.37813028069E+02  0.76985096952E+02  0.87554636184E+02  0.10566000000E+00 0.  1.
        994    1    1    2    0    0  0.13010349220E+02  0.44731811708E+02  0.17739226829E+02  0.17830963051E+03  0.17120000000E+03 0.  0.
        998    1    1    2    0    0  0.45758075171E+01 -0.69187836386E+01  0.14052756725E+04  0.14053357333E+04  0.10000000000E+02 0.  1.
</event>
<event>
 5    1  0.9130022E-009  0.3693407E+03  0.7957747E-01  0.3498926E+00
         13   -1    0    0    0    0  0.00000000000E+00  0.00000000000E+00  0.14999999963E+04  0.15000000000E+04  0.10566000000E+00 0.  1.
        994   -1    0    0    0    0 -0.00000000000E+00 -0.00000000000E+00  0.11368683772E-12  0.17120000000E+03  0.17120000000E+03 0.  0.
         13    1    1    2    0    0  0.66573345489E+02 -0.18322986331E+03  0.74389398273E+03  0.76901460444E+03  0.10566000000E+00 0.  1.
        994    1    1    2    0    0 -0.65173188800E+02  0.18286578284E+03  0.15645325488E+03  0.30244751617E+03  0.17120000000E+03 0.  0.
        998    1    1    2    0    0 -0.14001566889E+01  0.36408046652E+00  0.59965275867E+03  0.59973787939E+03  0.10000000000E+02 0.  0.
</event>
<event>
 5    1  0.9130022E-009  0.3812917E+03  0.7957747E-01  0.3445553E+00
         13   -1    0    0    0    0  0.00000000000E+00  0.00000000000E+00  0.14999999963E+04  0.15000000000E+04  0.10566000000E+00 0. -1.
        994   -1    0    0    0    0 -0.00000000000E+00 -0.00000000000E+00  0.11368683772E-12  0.17120000000E+03  0.17120000000E+03 0.  0.
         13    1    1    2    0    0 -0.17587315567E+02 -0.15286509718E+02  0.91682714134E+02  0.94597686458E+02  0.10566000000E+00 0. -1.
        994    1    1    2    0    0 -0.18345569032E+02 -0.62192928919E+01  0.47325576663E+01  0.17235740950E+03  0.17120000000E+03 0.  0.
        998    1    1    2    0    0  0.35932884598E+02  0.21505802610E+02  0.14035847245E+04  0.14042449040E+04  0.10000000000E+02 0. -1.
</event>
<event>
 5    1  0.9130022E-009  0.3777501E+03  0.7957747E-01  0.3461014E+00
         13   -1    0    0    0    0  0.00000000000E+00  0.00000000000E+00  0.14999999963E+04  0.15000000000E+04  0.10566000000E+00 0. -1.
        994   -1    0    0    0    0 -0.00000000000E+00 -0.00000000000E+00  0.11368683772E-12  0.17120000000E+03  0.17120000000E+03 0.  0.
         13    1    1    2    0    0  0.32145375761E+02 -0.86258727816E+01  0.90437755128E+02  0.96367679129E+02  0.10566000000E+00 0. -1.
        994    1    1    2    0    0 -0.49314851584E+02  0.10249726874E+02  0.13865905934E+02  0.17899361674E+03  0.17120000000E+03 0.  0.
        998    1    1    2    0    0  0.17169475823E+02 -0.16238540921E+01  0.13956963352E+04  0.13958387041E+04  0.10000000000E+02 0. -1.
</event>
<event>
 5    1  0.9130022E-009  0.3760314E+03  0.7957747E-01  0.3468623E+00
         13   -1    0    0    0    0  0.00000000000E+00  0.00000000000E+00  0.14999999963E+04  0.15000000000E+04  0.10566000000E+00 0.  1.
        994   -1    0    0    0    0 -0.00000000000E+00 -0.00000000000E+00  0.11368683772E-12  0.17120000000E+03  0.17120000000E+03 0.  0.
         13    1    1    2    0    0  0.57119369932E+01 -0.68116556459E+02  0.27468284327E+03  0.28306035936E+03  0.10566000000E+00 0.  1.
        994    1    1    2    0    0 -0.48519110931E+01  0.83765094888E+02  0.30383601995E+02  0.19306148097E+03  0.17120000000E+03 0.  0.
        998    1    1    2    0    0 -0.86002590006E+00 -0.15648538429E+02  0.11949335510E+04  0.11950781597E+04  0.10000000000E+02 0.  1.
</event>
<event>
 5    1  0.9130022E-009  0.3810818E+03  0.7957747E-01  0.3446462E+00
         13   -1    0    0    0    0  0.00000000000E+00  0.00000000000E+00  0.14999999963E+04  0.15000000000E+04  0.10566000000E+00 0. -1.
        994   -1    0    0    0    0 -0.00000000000E+00 -0.00000000000E+00  0.11368683772E-12  0.17120000000E+03  0.17120000000E+03 0.  0.
         13    1    1    2    0    0 -0.34630429407E+02  0.52972847895E+00  0.14720850638E+03  0.15122798275E+03  0.10566000000E+00 0. -1.
        994    1    1    2    0    0  0.38633258056E+02 -0.58391305470E+01  0.86900124697E+01  0.17581689450E+03  0.17120000000E+03 0.  0.
        998    1    1    2    0    0 -0.40028286488E+01  0.53094020680E+01  0.13441014774E+04  0.13441551228E+04  0.10000000000E+02 0. -1.
</event>
<event>
 5    1  0.9130022E-009  0.3829535E+03  0.7957747E-01  0.3438398E+00
         13   -1    0    0    0    0  0.00000000000E+00  0.00000000000E+00  0.14999999963E+04  0.15000000000E+04  0.10566000000E+00 0.  1.
        994   -1    0    0    0    0 -0.00000000000E+00 -0.00000000000E+00  0.11368683772E-12  0.17120000000E+03  0.17120000000E+03 0.  0.
         13    1    1    2    0    0  0.14464269855E+02 -0.40041949559E+01  0.45363700305E+02  0.47782058862E+02  0.10566000000E+00 0.  1.
        994    1    1    2    0    0  0.83977221817E+01 -0.52765743471E+01  0.29753160029E+01  0.17151284640E+03  0.17120000000E+03 0.  0.
        998    1    1    2    0    0 -0.22861992037E+02  0.92807693030E+01  0.14516609800E+04  0.14519050947E+04  0.10000000000E+02 0.  1.
</event>
<event>
 5    1  0.9130022E-009  0.3765097E+03  0.7957747E-01  0.3466498E+00
         13   -1    0    0    0    0  0.00000000000E+00  0.00000000000E+00  0.14999999963E+04  0.15000000000E+04  0.10566000000E+00 0.  1.
        994   -1    0    0    0    0 -0.00000000000E+00 -0.00000000000E+00  0.11368683772E-12  0.17120000000E+03  0.17120000000E+03 0.  0.
         13    1    1    2    0    0  0.16488434947E+02  0.44874293881E+02  0.19875248650E+03  0.20442145874E+03  0.10566000000E+00 0.  1.
        994    1    1    2    0    0 -0.43536605200E+02 -0.89795958834E+01  0.12617890314E+02  0.17732659217E+03  0.17120000000E+03 0.  0.
        998    1    1    2    0    0  0.27048170253E+02 -0.35894697997E+02  0.12886296195E+04  0.12894519491E+04  0.10000000000E+02 0.  1.
</event>
<event>
 5    1  0.9130022E-009  0.3786593E+03  0.7957747E-01  0.3457017E+00
         13   -1    0    0    0    0  0.00000000000E+00  0.00000000000E+00  0.14999999963E+04  0.15000000000E+04  0.10566000000E+00 0.  1.
        994   -1    0    0    0    0 -0.00000000000E+00 -0.00000000000E+00  0.11368683772E-12  0.17120000000E+03  0.17120000000E+03 0.  0.
         13    1    1    2    0    0 -0.19395014153E+02 -0.48649435202E+02  0.24223657357E+03  0.24783361931E+03  0.10566000000E+00 0.  1.
        994    1    1    2    0    0  0.17145140971E+02  0.47906578009E+02  0.13554413574E+02  0.17911493015E+03  0.17120000000E+03 0.  0.
        998    1    1    2    0    0  0.22498731825E+01  0.74285719338E+00  0.12442090091E+04  0.12442514505E+04  0.10000000000E+02 0.  1.
</event>
<event>
 5    1  0.9130022E-009  0.3786374E+03  0.7957747E-01  0.3457113E+00
         13   -1    0    0    0    0  0.00000000000E+00  0.00000000000E+00  0.14999999963E+04  0.15000000000E+04  0.10566000000E+00 0.  1.
        994   -1    0    0    0    0 -0.00000000000E+00 -0.00000000000E+00  0.11368683772E-12  0.17120000000E+03  0.17120000000E+03 0.  0.
         13    1    1    2    0    0  0.30757588035E+02 -0.23172679902E+02  0.13899607768E+03  0.14423218465E+03  0.10566000000E+00 0.  1.
        994    1    1    2    0    0 -0.26824147720E+02  0.28878048317E+02  0.10056960642E+02  0.17596607353E+03  0.17120000000E+03 0.  0.
        998    1    1    2    0    0 -0.39334403153E+01 -0.57053684144E+01  0.13509469580E+04  0.13510017418E+04  0.10000000000E+02 0.  1.
</event>
<event>
 5    1  0.9130022E-009  0.3732161E+03  0.7957747E-01  0.3481239E+00
         13   -1    0    0    0    0  0.00000000000E+00  0.00000000000E+00  0.14999999963E+04  0.15000000000E+04  0.10566000000E+00 0. -1.
        994   -1    0    0    0    0 -0.00000000000E+00 -0.00000000000E+00  0.11368683772E-12  0.17120000000E+03  0.17120000000E+03 0.  0.
         13    1    1    2    0    0 -0.14066589696E+02 -0.13809481800E+02  0.22086125540E+02  0.29603696369E+02  0.10566000000E+00 0. -1.
        994    1    1    2    0    0  0.13503293525E+02  0.12959737018E+02  0.87964720543E+01  0.17244451757E+03  0.17120000000E+03 0.  0.
        998    1    1    2    0    0  0.56329617139E+00  0.84974478175E+00  0.14691173987E+04  0.14691517861E+04  0.10000000000E+02 0. -1.
</event>
<event>
 5    1  0.9130022E-009  0.3854499E+03  0.7957747E-01  0.3427766E+00
         13   -1    0    0    0    0  0.00000000000E+00  0.00000000000E+00  0.14999999963E+04  0.15000000000E+04  0.10566000000E+00 0.  1.
        994   -1    0    0    0    0 -0.00000000000E+00 -0.00000000000E+00  0.11368683772E-12  0.17120000000E+03  0.17120000000E+03 0.  0.
         13    1    1    2    0    0  0.27680893015E+01 -0.10189763576E+02  0.39626138599E+02  0.41008970048E+02  0.10566000000E+00 0.  1.
        994    1    1    2    0    0 -0.15207304309E+02  0.38475040783E+01  0.22153853263E+01  0.17193142041E+03  0.17120000000E+03 0.  0.
        998    1    1    2    0    0  0.12439215007E+02  0.63422594981E+01  0.14581584724E+04  0.14582596095E+04  0.10000000000E+02 0.  1.
</event>
<event>
 5    1  0.9130022E-009  0.3850899E+03  0.7957747E-01  0.3429291E+00
         13   -1    0    0    0    0  0.00000000000E+00  0.00000000000E+00  0.14999999963E+04  0.15000000000E+04  0.10566000000E+00 0.  1.
        994   -1    0    0    0    0 -0.00000000000E+00 -0.00000000000E+00  0.11368683772E-12  0.17120000000E+03  0.17120000000E+03 0.  0.
         13    1    1    2    0    0  0.49346236482E+01 -0.12321725134E+02  0.55076860808E+02  0.56653748167E+02  0.10566000000E+00 0.  1.
        994    1    1    2    0    0 -0.60202053287E+01  0.87716059107E+01  0.19577232133E+01  0.17154141372E+03  0.17120000000E+03 0.  0.
        998    1    1    2    0    0  0.10855816805E+01  0.35501192237E+01  0.14429654123E+04  0.14430048381E+04  0.10000000000E+02 0.  1.
</event>
<event>
 5    1  0.9130022E-009  0.3778512E+03  0.7957747E-01  0.3460568E+00
         13   -1    0    0    0    0  0.00000000000E+00  0.00000000000E+00  0.14999999963E+04  0.15000000000E+04  0.10566000000E+00 0.  1.
        994   -1    0    0    0    0 -0.00000000000E+00 -0.00000000000E+00  0.11368683772E-12  0.17120000000E+03  0.17120000000E+03 0.  0.
         13    1    1    2    0    0  0.17038430922E+02 -0.23843137180E+02  0.77765735152E+02  0.83104296198E+02  0.10566000000E+00 0.  1.
        994    1    1    2    0    0 -0.10917381198E+02  0.24293416940E+02  0.76137677186E+01  0.17342655154E+03  0.17120000000E+03 0.  0.
        998    1    1    2    0    0 -0.61210497244E+01 -0.45027976011E+00  0.14146204934E+04  0.14146691523E+04  0.10000000000E+02 0.  1.
</event>
<event>
 5    1  0.9130022E-009  0.3822984E+03  0.7957747E-01  0.3441212E+00
         13   -1    0    0    0    0  0.00000000000E+00  0.00000000000E+00  0.14999999963E+04  0.15000000000E+04  0.10566000000E+00 0. -1.
        994   -1    0    0    0    0 -0.00000000000E+00 -0.00000000000E+00  0.11368683772E-12  0.17120000000E+03  0.17120000000E+03 0.  0.
         13    1    1    2    0    0  0.19717038847E+02 -0.73406627129E+01  0.46982093627E+01  0.21557627077E+02  0.10566000000E+00 0. -1.
        994    1    1    2    0    0 -0.21585428106E+02  0.83710627740E+01  0.19556578773E+02  0.17386174154E+03  0.17120000000E+03 0.  0.
        998    1    1    2    0    0  0.18683892589E+01 -0.10304000612E+01  0.14757452081E+04  0.14757806314E+04  0.10000000000E+02 0. -1.
</event>
<event>
 5    1  0.9130022E-009  0.3822820E+03  0.7957747E-01  0.3441282E+00
         13   -1    0    0    0    0  0.00000000000E+00  0.00000000000E+00  0.14999999963E+04  0.15000000000E+04  0.10566000000E+00 0. -1.
        994   -1    0    0    0    0 -0.00000000000E+00 -0.00000000000E+00  0.11368683772E-12  0.17120000000E+03  0.17120000000E+03 0.  0.
         13    1    1    2    0    0 -0.12343015292E+02  0.54136573230E+01  0.29166574202E+02  0.32130327213E+02  0.10566000000E+00 0. -1.
        994    1    1    2    0    0  0.97241145840E+01 -0.49939921784E+01  0.33822037066E+01  0.17158198526E+03  0.17120000000E+03 0.  0.
        998    1    1    2    0    0  0.26189007084E+01 -0.41966514458E+00  0.14674512184E+04  0.14674876875E+04  0.10000000000E+02 0. -1.
</event>
<event>
 5    1  0.9130022E-009  0.3794676E+03  0.7957747E-01  0.3453480E+00
         13   -1    0    0    0    0  0.00000000000E+00  0.00000000000E+00  0.14999999963E+04  0.15000000000E+04  0.10566000000E+00 0.  1.
        994   -1    0    0    0    0 -0.00000000000E+00 -0.00000000000E+00  0.11368683772E-12  0.17120000000E+03  0.17120000000E+03 0.  0.
         13    1    1    2    0    0 -0.14539341451E+02 -0.79700209904E+01  0.28828282147E+02  0.33256498613E+02  0.10566000000E+00 0.  1.
        994    1    1    2    0    0  0.22243967403E+02 -0.20585688281E+01  0.60750684243E+01  0.17275814958E+03  0.17120000000E+03 0.  0.
        998    1    1    2    0    0 -0.77046259520E+01  0.10028589818E+02  0.14650966457E+04  0.14651853518E+04  0.10000000000E+02 0.  1.
</event>
<event>
 5    1  0.9130022E-009  0.3792881E+03  0.7957747E-01  0.3454264E+00
         13   -1    0    0    0    0  0.00000000000E+00  0.00000000000E+00  0.14999999963E+04  0.15000000000E+04  0.10566000000E+00 0. -1.
        994   -1    0    0    0    0 -0.00000000000E+00 -0.00000000000E+00  0.11368683772E-12  0.17120000000E+03  0.17120000000E+03 0.  0.
         13    1    1    2    0    0  0.25119608281E+02 -0.17442906093E+02  0.96556478105E+02  0.10128383050E+03  0.10566000000E+00 0. -1.
        994    1    1    2    0    0 -0.28718001991E+02  0.12921554167E+02  0.78230353779E+01  0.17424789836E+03  0.17120000000E+03 0.  0.
        998    1    1    2    0    0  0.35983937101E+01  0.45213519254E+01  0.13956204828E+04  0.13956682711E+04  0.10000000000E+02 0. -1.
</event>
<event>
 5    1  0.9130022E-009  0.3841739E+03  0.7957747E-01  0.3433184E+00
         13   -1    0    0    0    0  0.00000000000E+00  0.00000000000E+00  0.14999999963E+04  0.15000000000E+04  0.10566000000E+00 0. -1.
        994   -1    0    0    0    0 -0.00000000000E+00 -0.00000000000E+00  0.11368683772E-12  0.17120000000E+03  0.17120000000E+03 0.  0.
         13    1    1    2    0    0 -0.10446713811E+02  0.11660121490E+02  0.67637117709E+02  0.69425378059E+02  0.10566000000E+00 0. -1.
        994    1    1    2    0    0 -0.71517025779E+01  0.81153742005E+01  0.24267808754E+01  0.17155854806E+03  0.17120000000E+03 0.  0.
        998    1    1    2    0    0  0.17598416389E+02 -0.19775495690E+02  0.14299360977E+04  0.14302160739E+04  0.10000000000E+02 0. -1.
</event>
<event>
 5    1  0.9130022E-009  0.3818950E+03  0.7957747E-01  0.3442949E+00
         13   -1    0    0    0    0  0.00000000000E+00  0.00000000000E+00  0.14999999963E+04  0.15000000000E+04  0.10566000000E+00 0. -1.
        994   -1    0    0    0    0 -0.00000000000E+00 -0.00000000000E+00  0.11368683772E-12  0.17120000000E+03  0.17120000000E+03 0.  0.
         13    1    1    2    0    0 -0.15143317112E+02  0.64763154803E+01  0.40440878057E+02  0.43666216889E+02  0.10566000000E+00 0. -1.
        994    1    1    2    0    0  0.15325809761E+02 -0.99600537629E+01  0.42902639790E+01  0.17222639020E+03  0.17120000000E+03 0.  0.
        998    1    1    2    0    0 -0.18249264887E+00  0.34837382826E+01  0.14552688542E+04  0.14553073929E+04  0.10000000000E+02 0. -1.
</event>
<event>
 5    1  0.9130022E-009  0.3803425E+03  0.7957747E-01  0.3449668E+00
         13   -1    0    0    0    0  0.00000000000E+00  0.00000000000E+00  0.14999999963E+04  0.15000000000E+04  0.10566000000E+00 0.  1.
        994   -1    0    0    0    0 -0.00000000000E+00 -0.00000000000E+00  0.11368683772E-12  0.17120000000E+03  0.17120000000E+03 0.  0.
         13    1    1    2    0    0  0.75430511062E+02  0.17850167877E+02  0.15800411511E+03  0.17599347161E+03  0.10566000000E+00 0.  1.
        994    1    1    2    0    0 -0.76200468902E+02 -0.17440091398E+02  0.39036030529E+02  0.19220801213E+03  0.17120000000E+03 0.  0.
        998    1    1    2    0    0  0.76995784059E+00 -0.41007647824E+00  0.13029598506E+04  0.13029985163E+04  0.10000000000E+02 0.  0.
</event>
<event>
 5    1  0.9130022E-009  0.3824757E+03  0.7957747E-01  0.3440449E+00
         13   -1    0    0    0    0  0.00000000000E+00  0.00000000000E+00  0.14999999963E+04  0.15000000000E+04  0.10566000000E+00 0. -1.
        994   -1    0    0    0    0 -0.00000000000E+00 -0.00000000000E+00  0.11368683772E-12  0.17120000000E+03  0.17120000000E+03 0.  0.
         13    1    1    2    0    0  0.16718004914E+02 -0.33609317183E+02  0.21643672809E+03  0.21966780902E+03  0.10566000000E+00 0. -1.
        994    1    1    2    0    0 -0.52877802670E+02  0.15962726029E+02  0.13071377931E+02  0.18036399740E+03  0.17120000000E+03 0.  0.
        998    1    1    2    0    0  0.36159797755E+02  0.17646591154E+02  0.12704918903E+04  0.12711681936E+04  0.10000000000E+02 0. -1.
</event>
<event>
 5    1  0.9130022E-009  0.3792535E+03  0.7957747E-01  0.3454415E+00
         13   -1    0    0    0    0  0.00000000000E+00  0.00000000000E+00  0.14999999963E+04  0.15000000000E+04  0.10566000000E+00 0. -1.
        994   -1    0    0    0    0 -0.00000000000E+00 -0.00000000000E+00  0.11368683772E-12  0.17120000000E+03  0.17120000000E+03 0.  0.
         13    1    1    2    0    0  0.20034631021E+02 -0.14809542911E+02  0.62490178852E+02  0.67273639847E+02  0.10566000000E+00 0. -1.
        994    1    1    2    0    0 -0.23198063742E+01  0.54800296131E+02  0.14659160673E+02  0.18036846994E+03  0.17120000000E+03 0.  0.
        998    1    1    2    0    0 -0.17714824646E+02 -0.39990753220E+02  0.14228506568E+04  0.14235578902E+04  0.10000000000E+02 0. -1.
</event>
<event>
 5    1  0.9130022E-009  0.3850228E+03  0.7957747E-01  0.3429576E+00
         13   -1    0    0    0    0  0.00000000000E+00  0.00000000000E+00  0.14999999963E+04  0.15000000000E+04  0.10566000000E+00 0.  1.
        994   -1    0    0    0    0 -0.00000000000E+00 -0.00000000000E+00  0.11368683772E-12  0.17120000000E+03  0.17120000000E+03 0.  0.
         13    1    1    2    0    0 -0.18249968480E+02  0.75302272908E+01  0.11364662179E+03  0.11534873853E+03  0.10566000000E+00 0.  1.
        994    1    1    2    0    0  0.17540826863E+02 -0.84036841135E+01  0.28638218161E+01  0.17232511131E+03  0.17120000000E+03 0.  0.
        998    1    1    2    0    0  0.70914161615E+00  0.87345682268E+00  0.13834895527E+04  0.13835261502E+04  0.10000000000E+02 0.  1.
</event>
<event>
 5    1  0.9130022E-009  0.3818725E+03  0.7957747E-01  0.3443045E+00
         13   -1    0    0    0    0  0.00000000000E+00  0.00000000000E+00  0.14999999963E+04  0.15000000000E+04  0.10566000000E+00 0.  1.
        994   -1    0    0    0    0 -0.00000000000E+00 -0.00000000000E+00  0.11368683772E-12  0.17120000000E+03  0.17120000000E+03 0.  0.
         13    1    1    2    0    0  0.22152336206E+02  0.28208146098E+02  0.19028119777E+03  0.19363205028E+03  0.10566000000E+00 0.  1.
        994    1    1    2    0    0 -0.30496143230E+01 -0.33118735848E+02  0.68746150007E+01  0.17453610269E+03  0.17120000000E+03 0.  0.
        998    1    1    2    0    0 -0.19102721883E+02  0.49105897506E+01  0.13028441835E+04  0.13030318470E+04  0.10000000000E+02 0.  1.
</event>
<event>
 5    1  0.9130022E-009  0.3723191E+03  0.7957747E-01  0.3485300E+00
         13   -1    0    0    0    0  0.00000000000E+00  0.00000000000E+00  0.14999999963E+04  0.15000000000E+04  0.10566000000E+00 0. -1.
        994   -1    0    0    0    0 -0.00000000000E+00 -0.00000000000E+00  0.11368683772E-12  0.17120000000E+03  0.17120000000E+03 0.  0.
         13    1    1    2    0    0 -0.68687311904E+02  0.33922514861E+02  0.45403641078E+03  0.46045386013E+03  0.10566000000E+00 0. -1.
        994    1    1    2    0    0  0.22061426892E+02 -0.77289638855E+00  0.97352856748E+01  0.17289164153E+03  0.17120000000E+03 0.  0.
        998    1    1    2    0    0  0.46625885012E+02 -0.33149618473E+02  0.10362282998E+04  0.10378544983E+04  0.10000000000E+02 0. -1.
</event>
<event>
 5    1  0.9130022E-009  0.3789065E+03  0.7957747E-01  0.3455934E+00
         13   -1    0    0    0    0  0.00000000000E+00  0.00000000000E+00  0.14999999963E+04  0.15000000000E+04  0.10566000000E+00 0.  1.
        994   -1    0    0    0    0 -0.00000000000E+00 -0.00000000000E+00  0.11368683772E-12  0.17120000000E+03  0.17120000000E+03 0.  0.
         13    1    1    2    0    0 -0.56152089772E+01  0.97812153026E+01  0.11380814926E+02  0.16023010238E+02  0.10566000000E+00 0.  1.
        994    1    1    2    0    0  0.77230447705E+01 -0.10069878352E+02  0.52266766805E+01  0.17174925333E+03  0.17120000000E+03 0.  0.
        998    1    1    2    0    0 -0.21078357932E+01  0.28866304922E+00  0.14833925047E+04  0.14834277364E+04  0.10000000000E+02 0.  1.
</event>
<event>
 5    1  0.9130022E-009  0.3773221E+03  0.7957747E-01  0.3462902E+00
         13   -1    0    0    0    0  0.00000000000E+00  0.00000000000E+00  0.14999999963E+04  0.15000000000E+04  0.10566000000E+00 0. -1.
        994   -1    0    0    0    0 -0.00000000000E+00 -0.00000000000E+00  0.11368683772E-12  0.17120000000E+03  0.17120000000E+03 0.  0.
         13    1    1    2    0    0  0.97520230161E+02 -0.11823994342E+03  0.50210708276E+03  0.52497848835E+03  0.10566000000E+00 0. -1.
        994    1    1    2    0    0 -0.89468928125E+02  0.11988994890E+03  0.10022590684E+03  0.24846118681E+03  0.17120000000E+03 0.  0.
        998    1    1    2    0    0 -0.80513020354E+01 -0.16500054784E+01  0.89766700668E+03  0.89776032484E+03  0.10000000000E+02 0.  1.
</event>
<event>
 5    1  0.9130022E-009  0.3846762E+03  0.7957747E-01  0.3431047E+00
         13   -1    0    0    0    0  0.00000000000E+00  0.00000000000E+00  0.14999999963E+04  0.15000000000E+04  0.10566000000E+00 0. -1.
        994   -1    0    0    0    0 -0.00000000000E+00 -0.00000000000E+00  0.11368683772E-12  0.17120000000E+03  0.17120000000E+03 0.  0.
         13    1    1    2    0    0  0.14496069037E+02 -0.43831714309E+01  0.63744837978E+02  0.65519186062E+02  0.10566000000E+00 0. -1.
        994    1    1    2    0    0 -0.11660800464E+02 -0.28489473451E+01  0.22655134901E+01  0.17163526246E+03  0.17120000000E+03 0.  0.
        998    1    1    2    0    0 -0.28352685731E+01  0.72321187760E+01  0.14339896448E+04  0.14340455515E+04  0.10000000000E+02 0. -1.
</event>
<event>
 5    1  0.9130022E-009  0.3799012E+03  0.7957747E-01  0.3451589E+00
         13   -1    0    0    0    0  0.00000000000E+00  0.00000000000E+00  0.14999999963E+04  0.15000000000E+04  0.10566000000E+00 0.  1.
        994   -1    0    0    0    0 -0.00000000000E+00 -0.00000000000E+00  0.11368683772E-12  0.17120000000E+03  0.17120000000E+03 0.  0.
         13    1    1    2    0    0 -0.78956093734E+00 -0.25294281423E+02  0.77105857629E+02  0.81152624874E+02  0.10566000000E+00 0.  1.
        994    1    1    2    0    0  0.38202662251E+01  0.98022647629E+01  0.45532189435E+01  0.17158336350E+03  0.17120000000E+03 0.  0.
        998    1    1    2    0    0 -0.30307052877E+01  0.15492016660E+02  0.14183409197E+04  0.14184640116E+04  0.10000000000E+02 0.  1.
</event>
<event>
 5    1  0.9130022E-009  0.3846401E+03  0.7957747E-01  0.3431200E+00
         13   -1    0    0    0    0  0.00000000000E+00  0.00000000000E+00  0.14999999963E+04  0.15000000000E+04  0.10566000000E+00 0.  1.
        994   -1    0    0    0    0 -0.00000000000E+00 -0.00000000000E+00  0.11368683772E-12  0.17120000000E+03  0.17120000000E+03 0.  0.
         13    1    1    2    0    0  0.13435202509E+02  0.16338602424E+01  0.49266299347E+02  0.51091619480E+02  0.10566000000E+00 0.  1.
        994    1    1    2    0    0 -0.13571855662E+02  0.67686559635E+00  0.24171426102E+01  0.17175545404E+03  0.17120000000E+03 0.  0.
        998    1    1    2    0    0  0.13665315263E+00 -0.23107258388E+01  0.14483165543E+04  0.14483529265E+04  0.10000000000E+02 0.  1.
</event>
<event>
 5    1  0.9130022E-009  0.3853481E+03  0.7957747E-01  0.3428197E+00
         13   -1    0    0    0    0  0.00000000000E+00  0.00000000000E+00  0.14999999963E+04  0.15000000000E+04  0.10566000000E+00 0.  1.
        994   -1    0    0    0    0 -0.00000000000E+00 -0.00000000000E+00  0.11368683772E-12  0.17120000000E+03  0.17120000000E+03 0.  0.
         13    1    1    2    0    0 -0.50348438116E+01  0.10318358023E+02  0.46491191340E+02  0.47887996416E+02  0.10566000000E+00 0.  1.
        994    1    1    2    0    0 -0.95528631648E+01 -0.84196109626E+01  0.19902320726E+01  0.17168444329E+03  0.17120000000E+03 0.  0.
        998    1    1    2    0    0  0.14587706976E+02 -0.18987470607E+01  0.14515185729E+04  0.14516275603E+04  0.10000000000E+02 0.  1.
</event>
<event>
 5    1  0.9130022E-009  0.3840097E+03  0.7957747E-01  0.3433883E+00
         13   -1    0    0    0    0  0.00000000000E+00  0.00000000000E+00  0.14999999963E+04  0.15000000000E+04  0.10566000000E+00 0.  1.
        994   -1    0    0    0    0 -0.00000000000E+00 -0.00000000000E+00  0.11368683772E-12  0.17120000000E+03  0.17120000000E+03 0.  0.
         13    1    1    2    0    0 -0.48752642480E+01 -0.13329332082E+02  0.48830299305E+02  0.50851239803E+02  0.10566000000E+00 0.  1.
        994    1    1    2    0    0  0.19057223772E+02 -0.49791220364E+01  0.34036544688E+01  0.17236297253E+03  0.17120000000E+03 0.  0.
        998    1    1    2    0    0 -0.14181959524E+02  0.18308454119E+02  0.14477660425E+04  0.14479857877E+04  0.10000000000E+02 0.  1.
</event>
<event>
 5    1  0.9130022E-009  0.3826790E+03  0.7957747E-01  0.3439576E+00
         13   -1    0    0    0    0  0.00000000000E+00  0.00000000000E+00  0.14999999963E+04  0.15000000000E+04  0.10566000000E+00 0.  1.
        994   -1    0    0    0    0 -0.00000000000E+00 -0.00000000000E+00  0.11368683772E-12  0.17120000000E+03  0.17120000000E+03 0.  0.
         13    1    1    2    0    0  0.20310553038E+02  0.54389748531E+01  0.74891819424E+02  0.77787510520E+02  0.10566000000E+00 0.  1.
        994    1    1    2    0    0 -0.18799315683E+02 -0.15889886313E+02  0.47971803155E+01  0.17302703747E+03  0.17120000000E+03 0.  0.
        998    1    1    2    0    0 -0.15112373549E+01  0.10450911460E+02  0.14203109965E+04  0.14203854520E+04  0.10000000000E+02 0.  1.
</event>
<event>
 5    1  0.9130022E-009  0.3798316E+03  0.7957747E-01  0.3451892E+00
         13   -1    0    0    0    0  0.00000000000E+00  0.00000000000E+00  0.14999999963E+04  0.15000000000E+04  0.10566000000E+00 0. -1.
        994   -1    0    0    0    0 -0.00000000000E+00 -0.00000000000E+00  0.11368683772E-12  0.17120000000E+03  0.17120000000E+03 0.  0.
         13    1    1    2    0    0  0.23680498749E+02 -0.65273926164E+01  0.66528456447E+02  0.70918400692E+02  0.10566000000E+00 0. -1.
        994    1    1    2    0    0 -0.26089663874E+02  0.93436945483E+01  0.67911283033E+01  0.17356132810E+03  0.17120000000E+03 0.  0.
        998    1    1    2    0    0  0.24091651252E+01 -0.28163019319E+01  0.14266804115E+04  0.14267202712E+04  0.10000000000E+02 0. -1.
</event>
<event>
 5    1  0.9130022E-009  0.3694422E+03  0.7957747E-01  0.3498458E+00
         13   -1    0    0    0    0  0.00000000000E+00  0.00000000000E+00  0.14999999963E+04  0.15000000000E+04  0.10566000000E+00 0. -1.
        994   -1    0    0    0    0 -0.00000000000E+00 -0.00000000000E+00  0.11368683772E-12  0.17120000000E+03  0.17120000000E+03 0.  0.
         13    1    1    2    0    0 -0.21242374942E+02 -0.20531541120E+02  0.40491312286E+02  0.50123250180E+02  0.10566000000E+00 0. -1.
        994    1    1    2    0    0  0.11535392435E+01  0.44815198114E+02  0.16555646215E+02  0.17774493539E+03  0.17120000000E+03 0.  0.
        998    1    1    2    0    0  0.20088835699E+02 -0.24283656994E+02  0.14429530378E+04  0.14433318144E+04  0.10000000000E+02 0. -1.
</event>
<event>
 5    1  0.9130022E-009  0.3788146E+03  0.7957747E-01  0.3456336E+00
         13   -1    0    0    0    0  0.00000000000E+00  0.00000000000E+00  0.14999999963E+04  0.15000000000E+04  0.10566000000E+00 0. -1.
        994   -1    0    0    0    0 -0.00000000000E+00 -0.00000000000E+00  0.11368683772E-12  0.17120000000E+03  0.17120000000E+03 0.  0.
         13    1    1    2    0    0  0.72995762439E+01  0.28441188343E+02  0.95468556451E+02  0.99882137756E+02  0.10566000000E+00 0. -1.
        994    1    1    2    0    0 -0.59834905016E+01 -0.29197492516E+01  0.48815136343E+01  0.17139893894E+03  0.17120000000E+03 0.  0.
        998    1    1    2    0    0 -0.13160857423E+01 -0.25521439091E+02  0.13996499262E+04  0.13999189233E+04  0.10000000000E+02 0. -1.
</event>
<event>
 5    1  0.9130022E-009  0.3766421E+03  0.7957747E-01  0.3465911E+00
         13   -1    0    0    0    0  0.00000000000E+00  0.00000000000E+00  0.14999999963E+04  0.15000000000E+04  0.10566000000E+00 0. -1.
        994   -1    0    0    0    0 -0.00000000000E+00 -0.00000000000E+00  0.11368683772E-12  0.17120000000E+03  0.17120000000E+03 0.  0.
         13    1    1    2    0    0 -0.43231991854E+01 -0.13564596085E+02  0.15057679059E+02  0.20722769623E+02  0.10566000000E+00 0. -1.
        994    1    1    2    0    0 -0.22311202650E+01  0.38590323616E+01  0.59050534523E+01  0.17135979600E+03  0.17120000000E+03 0.  0.
        998    1    1    2    0    0  0.65543194504E+01  0.97055637239E+01  0.14790372638E+04  0.14791174344E+04  0.10000000000E+02 0. -1.
</event>
<event>
 5    1  0.9130022E-009  0.3824878E+03  0.7957747E-01  0.3440397E+00
         13   -1    0    0    0    0  0.00000000000E+00  0.00000000000E+00  0.14999999963E+04  0.15000000000E+04  0.10566000000E+00 0. -1.
        994   -1    0    0    0    0 -0.00000000000E+00 -0.00000000000E+00  0.11368683772E-12  0.17120000000E+03  0.17120000000E+03 0.  0.
         13    1    1    2    0    0 -0.19176718543E+02  0.19015605745E+02  0.11703672712E+03  0.12011222442E+03  0.10566000000E+00 0. -1.
        994    1    1    2    0    0  0.20950780172E+02 -0.17649634408E+02  0.53747645920E+01  0.17346115669E+03  0.17120000000E+03 0.  0.
        998    1    1    2    0    0 -0.17740616296E+01 -0.13659713377E+01  0.13775885046E+04  0.13776266189E+04  0.10000000000E+02 0.  0.
</event>
<event>
 5    1  0.9130022E-009  0.3856545E+03  0.7957747E-01  0.3426901E+00
         13   -1    0    0    0    0  0.00000000000E+00  0.00000000000E+00  0.14999999963E+04  0.15000000000E+04  0.10566000000E+00 0.  1.
        994   -1    0    0    0    0 -0.00000000000E+00 -0.00000000000E+00  0.11368683772E-12  0.17120000000E+03  0.17120000000E+03 0.  0.
         13    1    1    2    0    0 -0.80513883359E+01  0.68587354059E+01  0.43062114546E+02  0.44342124202E+02  0.10566000000E+00 0.  1.
        994    1    1    2    0    0  0.84376084107E+01 -0.12942085448E+01  0.15446929427E+01  0.17141964382E+03  0.17120000000E+03 0.  0.
        998    1    1    2    0    0 -0.38622007481E+00 -0.55645268611E+01  0.14553931888E+04  0.14554382320E+04  0.10000000000E+02 0.  1.
</event>
<event>
 5    1  0.9130022E-009  0.3828968E+03  0.7957747E-01  0.3438642E+00
         13   -1    0    0    0    0  0.00000000000E+00  0.00000000000E+00  0.14999999963E+04  0.15000000000E+04  0.10566000000E+00 0.  1.
        994   -1    0    0    0    0 -0.00000000000E+00 -0.00000000000E+00  0.11368683772E-12  0.17120000000E+03  0.17120000000E+03 0.  0.
         13    1    1    2    0    0 -0.37702189632E+02  0.62212006668E+01  0.18861349163E+03  0.19244536583E+03  0.10566000000E+00 0.  1.
        994    1    1    2    0    0  0.63530152852E+02 -0.29153561868E+02  0.19028591354E+02  0.18589657818E+03  0.17120000000E+03 0.  0.
        998    1    1    2    0    0 -0.25827963220E+02  0.22932361201E+02  0.12923579133E+04  0.12928580560E+04  0.10000000000E+02 0.  1.
</event>
<event>
 5    1  0.9130022E-009  0.3965147E+03  0.7957747E-01  0.3382258E+00
         13   -1    0    0    0    0  0.00000000000E+00  0.00000000000E+00  0.14999999963E+04  0.15000000000E+04  0.10566000000E+00 0. -1.
        994   -1    0    0    0    0 -0.00000000000E+00 -0.00000000000E+00  0.11368683772E-12  0.17120000000E+03  0.17120000000E+03 0.  0.
         13    1    1    2    0    0 -0.58325386521E+02  0.53223443414E+02  0.14524585524E+03  0.16532076479E+03  0.10566000000E+00 0. -1.
        994    1    1    2    0    0 -0.58994108528E+02 -0.30160937334E+02  0.42861471479E+02  0.18851135966E+03  0.17120000000E+03 0.  0.
        998    1    1    2    0    0  0.11731949505E+03 -0.23062506080E+02  0.13118926696E+04  0.13173678756E+04  0.10000000000E+02 0. -1.
</event>
<event>
 5    1  0.9130022E-009  0.3839830E+03  0.7957747E-01  0.3433997E+00
         13   -1    0    0    0    0  0.00000000000E+00  0.00000000000E+00  0.14999999963E+04  0.15000000000E+04  0.10566000000E+00 0. -1.
        994   -1    0    0    0    0 -0.00000000000E+00 -0.00000000000E+00  0.11368683772E-12  0.17120000000E+03  0.17120000000E+03 0.  0.
         13    1    1    2    0    0 -0.19339480437E+02 -0.71528300696E+01  0.11397884738E+03  0.11582904341E+03  0.10566000000E+00 0. -1.
        994    1    1    2    0    0 -0.24294555825E+01 -0.90240897430E+01  0.24241362146E+01  0.17147201779E+03  0.17120000000E+03 0.  0.
        998    1    1    2    0    0  0.21768936020E+02  0.16176919813E+02  0.13835970127E+04  0.13838989388E+04  0.10000000000E+02 0. -1.
</event>
<event>
 5    1  0.9130022E-009  0.3835312E+03  0.7957747E-01  0.3435925E+00
         13   -1    0    0    0    0  0.00000000000E+00  0.00000000000E+00  0.14999999963E+04  0.15000000000E+04  0.10566000000E+00 0.  1.
        994   -1    0    0    0    0 -0.00000000000E+00 -0.00000000000E+00  0.11368683772E-12  0.17120000000E+03  0.17120000000E+03 0.  0.
         13    1    1    2    0    0 -0.58664705782E+00 -0.22334359195E+02  0.10918972215E+03  0.11145211681E+03  0.10566000000E+00 0.  1.
        994    1    1    2    0    0 -0.66361949114E+01  0.86223511380E+01  0.27524054870E+01  0.17156747873E+03  0.17120000000E+03 0.  0.
        998    1    1    2    0    0  0.72228419693E+01  0.13712008057E+02  0.13880578686E+04  0.13881804045E+04  0.10000000000E+02 0.  1.
</event>
<event>
 5    1  0.9130022E-009  0.3791729E+03  0.7957747E-01  0.3454768E+00
         13   -1    0    0    0    0  0.00000000000E+00  0.00000000000E+00  0.14999999963E+04  0.15000000000E+04  0.10566000000E+00 0. -1.
        994   -1    0    0    0    0 -0.00000000000E+00 -0.00000000000E+00  0.11368683772E-12  0.17120000000E+03  0.17120000000E+03 0.  0.
         13    1    1    2    0    0  0.36752700195E+02 -0.60505040895E+01  0.14671546103E+03  0.15136976990E+03  0.10566000000E+00 0. -1.
        994    1    1    2    0    0 -0.24943389454E+02  0.12550544580E+02  0.71692110336E+01  0.17361027168E+03  0.17120000000E+03 0.  0.
        998    1    1    2    0    0 -0.11809310741E+02 -0.65000404907E+01  0.13461153242E+04  0.13462199584E+04  0.10000000000E+02 0. -1.
</event>
<event>
 5    1  0.9130022E-009  0.3768284E+03  0.7957747E-01  0.3465086E+00
         13   -1    0    0    0    0  0.00000000000E+00  0.00000000000E+00  0.14999999963E+04  0.15000000000E+04  0.10566000000E+00 0.  1.
        994   -1    0    0    0    0 -0.00000000000E+00 -0.00000000000E+00  0.11368683772E-12  0.17120000000E+03  0.17120000000E+03 0.  0.
         13    1    1    2    0    0  0.32156602240E+02 -0.38219144171E+01  0.94322476850E+02  0.99726600767E+02  0.10566000000E+00 0.  1.
        994    1    1    2    0    0 -0.70852144100E+01  0.21036927077E+01  0.59273489521E+01  0.17146194695E+03  0.17120000000E+03 0.  0.
        998    1    1    2    0    0 -0.25071387830E+02  0.17182217094E+01  0.13997501705E+04  0.14000114523E+04  0.10000000000E+02 0.  1.
</event>
<event>
 5    1  0.9130022E-009  0.3813103E+03  0.7957747E-01  0.3445473E+00
         13   -1    0    0    0    0  0.00000000000E+00  0.00000000000E+00  0.14999999963E+04  0.15000000000E+04  0.10566000000E+00 0.  1.
        994   -1    0    0    0    0 -0.00000000000E+00 -0.00000000000E+00  0.11368683772E-12  0.17120000000E+03  0.17120000000E+03 0.  0.
         13    1    1    2    0    0  0.30507003866E+02 -0.13063438168E+02  0.16232920855E+03  0.16568679433E+03  0.10566000000E+00 0.  1.
        994    1    1    2    0    0 -0.14021553454E+02  0.58283252805E+01  0.42410053488E+01  0.17192440043E+03  0.17120000000E+03 0.  0.
        998    1    1    2    0    0 -0.16485450412E+02  0.72351128873E+01  0.13334297824E+04  0.13335888052E+04  0.10000000000E+02 0.  1.
</event>
<event>
 5    1  0.9130022E-009  0.3832602E+03  0.7957747E-01  0.3437084E+00
         13   -1    0    0    0    0  0.00000000000E+00  0.00000000000E+00  0.14999999963E+04  0.15000000000E+04  0.10566000000E+00 0.  1.
        994   -1    0    0    0    0 -0.00000000000E+00 -0.00000000000E+00  0.11368683772E-12  0.17120000000E+03  0.17120000000E+03 0.  0.
         13    1    1    2    0    0  0.26802815226E+01 -0.20158042201E+02  0.90349270649E+02  0.92609569945E+02  0.10566000000E+00 0.  1.
        994    1    1    2    0    0  0.30244396434E+02  0.26438189862E+01  0.55507243879E+01  0.17395966152E+03  0.17120000000E+03 0.  0.
        998    1    1    2    0    0 -0.32924677957E+02  0.17514223215E+02  0.14041000012E+04  0.14046307685E+04  0.10000000000E+02 0.  1.
</event>
<event>
 5    1  0.9130022E-009  0.3796508E+03  0.7957747E-01  0.3452680E+00
         13   -1    0    0    0    0  0.00000000000E+00  0.00000000000E+00  0.14999999963E+04  0.15000000000E+04  0.10566000000E+00 0. -1.
        994   -1    0    0    0    0 -0.00000000000E+00 -0.00000000000E+00  0.11368683772E-12  0.17120000000E+03  0.17120000000E+03 0.  0.
         13    1    1    2    0    0  0.19312113553E+02 -0.47891674976E+02  0.28525627305E+03  0.28989260553E+03  0.10566000000E+00 0. -1.
        994    1    1    2    0    0 -0.12575181351E+02  0.35996313574E+02  0.91906634750E+01  0.17563535542E+03  0.17120000000E+03 0.  0.
        998    1    1    2    0    0 -0.67369322017E+01  0.11895361402E+02  0.12055530598E+04  0.12056720391E+04  0.10000000000E+02 0. -1.
</event>
<event>
 5    1  0.9130022E-009  0.3762695E+03  0.7957747E-01  0.3467564E+00
         13   -1    0    0    0    0  0.00000000000E+00  0.00000000000E+00  0.14999999963E+04  0.15000000000E+04  0.10566000000E+00 0. -1.
        994   -1    0    0    0    0 -0.00000000000E+00 -0.00000000000E+00  0.11368683772E-12  0.17120000000E+03  0.17120000000E+03 0.  0.
         13    1    1    2    0    0 -0.20153209507E+02 -0.88880314496E+01  0.38835387715E+02  0.44646919933E+02  0.10566000000E+00 0. -1.
        994    1    1    2    0    0  0.33957495149E+01  0.70766376419E+01  0.62368075679E+01  0.17149328758E+03  0.17120000000E+03 0.  0.
        998    1    1    2    0    0  0.16757459992E+02  0.18113938077E+01  0.14549278010E+04  0.14550597925E+04  0.10000000000E+02 0. -1.
</event>
<event>
 5    1  0.9130022E-009  0.3860372E+03  0.7957747E-01  0.3425285E+00
         13   -1    0    0    0    0  0.00000000000E+00  0.00000000000E+00  0.14999999963E+04  0.15000000000E+04  0.10566000000E+00 0. -1.
        994   -1    0    0    0    0 -0.00000000000E+00 -0.00000000000E+00  0.11368683772E-12  0.17120000000E+03  0.17120000000E+03 0.  0.
         13    1    1    2    0    0  0.81889436047E+00 -0.10552548490E+02  0.49560580081E+02  0.50678290515E+02  0.10566000000E+00 0. -1.
        994    1    1    2    0    0 -0.43765919031E+01  0.10601267729E+02  0.15473051878E+01  0.17159072116E+03  0.17120000000E+03 0.  0.
        998    1    1    2    0    0  0.35576975426E+01 -0.48719238635E-01  0.14488921110E+04  0.14489309883E+04  0.10000000000E+02 0. -1.
</event>
<event>
 5    1  0.9130022E-009  0.3818327E+03  0.7957747E-01  0.3443217E+00
         13   -1    0    0    0    0  0.00000000000E+00  0.00000000000E+00  0.14999999963E+04  0.15000000000E+04  0.10566000000E+00 0. -1.
        994   -1    0    0    0    0 -0.00000000000E+00 -0.00000000000E+00  0.11368683772E-12  0.17120000000E+03  0.17120000000E+03 0.  0.
         13    1    1    2    0    0  0.21693655344E+02 -0.11284247005E+02  0.92141281060E+02  0.95330875125E+02  0.10566000000E+00 0. -1.
        994    1    1    2    0    0 -0.14147905752E+02  0.52705523469E+01  0.39686062938E+01  0.17191024343E+03  0.17120000000E+03 0.  0.
        998    1    1    2    0    0 -0.75457495926E+01  0.60136946578E+01  0.14038901089E+04  0.14039588814E+04  0.10000000000E+02 0. -1.
</event>
<event>
 5    1  0.9130022E-009  0.3810741E+03  0.7957747E-01  0.3446495E+00
         13   -1    0    0    0    0  0.00000000000E+00  0.00000000000E+00  0.14999999963E+04  0.15000000000E+04  0.10566000000E+00 0. -1.
        994   -1    0    0    0    0 -0.00000000000E+00 -0.00000000000E+00  0.11368683772E-12  0.17120000000E+03  0.17120000000E+03 0.  0.
         13    1    1    2    0    0  0.84795714299E+02 -0.68549336771E+02  0.62952342425E+03  0.63889676598E+03  0.10566000000E+00 0. -1.
        994    1    1    2    0    0  0.15251691152E+02  0.24970784522E+02  0.20039178835E+02  0.17483467291E+03  0.17120000000E+03 0.  0.
        998    1    1    2    0    0 -0.10004740545E+03  0.43578552248E+02  0.85043739319E+03  0.85746856111E+03  0.10000000000E+02 0. -1.
</event>
<event>
 5    1  0.9130022E-009  0.3819758E+03  0.7957747E-01  0.3442600E+00
         13   -1    0    0    0    0  0.00000000000E+00  0.00000000000E+00  0.14999999963E+04  0.15000000000E+04  0.10566000000E+00 0. -1.
        994   -1    0    0    0    0 -0.00000000000E+00 -0.00000000000E+00  0.11368683772E-12  0.17120000000E+03  0.17120000000E+03 0.  0.
         13    1    1    2    0    0 -0.21829724417E+02  0.87383807448E+01  0.83485136935E+02  0.86733358169E+02  0.10566000000E+00 0. -1.
        994    1    1    2    0    0  0.20524454930E+02 -0.94819032629E+01  0.48386307513E+01  0.17275419557E+03  0.17120000000E+03 0.  0.
        998    1    1    2    0    0  0.13052694871E+01  0.74352251808E+00  0.14116762286E+04  0.14117124463E+04  0.10000000000E+02 0.  0.
</event>
<event>
 5    1  0.9130022E-009  0.3793813E+03  0.7957747E-01  0.3453857E+00
         13   -1    0    0    0    0  0.00000000000E+00  0.00000000000E+00  0.14999999963E+04  0.15000000000E+04  0.10566000000E+00 0. -1.
        994   -1    0    0    0    0 -0.00000000000E+00 -0.00000000000E+00  0.11368683772E-12  0.17120000000E+03  0.17120000000E+03 0.  0.
         13    1    1    2    0    0 -0.30649519819E+01  0.19506900027E+02  0.43990983450E+02  0.48219610826E+02  0.10566000000E+00 0. -1.
        994    1    1    2    0    0  0.53821499542E+01  0.15014068319E+00  0.45428981797E+01  0.17134488030E+03  0.17120000000E+03 0.  0.
        998    1    1    2    0    0 -0.23171979722E+01 -0.19657040710E+02  0.14514661146E+04  0.14516355089E+04  0.10000000000E+02 0. -1.
</event>
<event>
 5    1  0.9130022E-009  0.3799585E+03  0.7957747E-01  0.3451339E+00
         13   -1    0    0    0    0  0.00000000000E+00  0.00000000000E+00  0.14999999963E+04  0.15000000000E+04  0.10566000000E+00 0. -1.
        994   -1    0    0    0    0 -0.00000000000E+00 -0.00000000000E+00  0.11368683772E-12  0.17120000000E+03  0.17120000000E+03 0.  0.
         13    1    1    2    0    0 -0.24359677509E+02  0.65870754136E+02  0.39312240441E+03  0.39934644877E+03  0.10566000000E+00 0. -1.
        994    1    1    2    0    0  0.28437833420E+02 -0.74496325970E+02  0.25714261306E+02  0.19060187876E+03  0.17120000000E+03 0.  0.
        998    1    1    2    0    0 -0.40781559108E+01  0.86255718336E+01  0.10811633306E+04  0.10812516725E+04  0.10000000000E+02 0. -1.
</event>
<event>
 5    1  0.9130022E-009  0.3840880E+03  0.7957747E-01  0.3433549E+00
         13   -1    0    0    0    0  0.00000000000E+00  0.00000000000E+00  0.14999999963E+04  0.15000000000E+04  0.10566000000E+00 0. -1.
        994   -1    0    0    0    0 -0.00000000000E+00 -0.00000000000E+00  0.11368683772E-12  0.17120000000E+03  0.17120000000E+03 0.  0.
         13    1    1    2    0    0 -0.50813147958E+01  0.14019769070E+02  0.51323206739E+02  0.53445826767E+02  0.10566000000E+00 0. -1.
        994    1    1    2    0    0  0.78871286267E+01 -0.14179697620E+02  0.29524540790E+01  0.17199252195E+03  0.17120000000E+03 0.  0.
        998    1    1    2    0    0 -0.28058138310E+01  0.15992854946E+00  0.14457243355E+04  0.14457616513E+04  0.10000000000E+02 0. -1.
</event>
<event>
 5    1  0.9130022E-009  0.4031843E+03  0.7957747E-01  0.3356031E+00
         13   -1    0    0    0    0  0.00000000000E+00  0.00000000000E+00  0.14999999963E+04  0.15000000000E+04  0.10566000000E+00 0.  1.
        994   -1    0    0    0    0 -0.00000000000E+00 -0.00000000000E+00  0.11368683772E-12  0.17120000000E+03  0.17120000000E+03 0.  0.
         13    1    1    2    0    0 -0.76305770907E+02  0.48736521206E+02  0.12269341524E+03  0.15248444012E+03  0.10566000000E+00 0.  1.
        994    1    1    2    0    0  0.67831777415E+02 -0.44368675600E+02  0.56259604772E+02  0.19759633734E+03  0.17120000000E+03 0.  0.
        998    1    1    2    0    0  0.84739934919E+01 -0.43678456055E+01  0.13210469763E+04  0.13211192225E+04  0.10000000000E+02 0.  1.
</event>
<event>
 5    1  0.9130022E-009  0.3810592E+03  0.7957747E-01  0.3446559E+00
         13   -1    0    0    0    0  0.00000000000E+00  0.00000000000E+00  0.14999999963E+04  0.15000000000E+04  0.10566000000E+00 0. -1.
        994   -1    0    0    0    0 -0.00000000000E+00 -0.00000000000E+00  0.11368683772E-12  0.17120000000E+03  0.17120000000E+03 0.  0.
         13    1    1    2    0    0 -0.73489683170E+02  0.33417799659E+02  0.42552383704E+03  0.43311433816E+03  0.10566000000E+00 0. -1.
        994    1    1    2    0    0  0.10444437533E+03 -0.48152294682E+02  0.48996464522E+02  0.21198434979E+03  0.17120000000E+03 0.  0.
        998    1    1    2    0    0 -0.30954692159E+02  0.14734495022E+02  0.10254796947E+04  0.10261013120E+04  0.10000000000E+02 0. -1.
</event>
<event>
 5    1  0.9130022E-009  0.3852387E+03  0.7957747E-01  0.3428660E+00
         13   -1    0    0    0    0  0.00000000000E+00  0.00000000000E+00  0.14999999963E+04  0.15000000000E+04  0.10566000000E+00 0. -1.
        994   -1    0    0    0    0 -0.00000000000E+00 -0.00000000000E+00  0.11368683772E-12  0.17120000000E+03  0.17120000000E+03 0.  0.
         13    1    1    2    0    0 -0.12953819787E+02 -0.66783623756E+01  0.64960815629E+02  0.66575676507E+02  0.10566000000E+00 0. -1.
        994    1    1    2    0    0  0.17469809132E+02  0.14400188029E+02  0.31977977624E+01  0.17272007862E+03  0.17120000000E+03 0.  0.
        998    1    1    2    0    0 -0.45159893454E+01 -0.77218256531E+01  0.14318413829E+04  0.14319042449E+04  0.10000000000E+02 0. -1.
</event>
<event>
 5    1  0.9130022E-009  0.3800361E+03  0.7957747E-01  0.3451001E+00
         13   -1    0    0    0    0  0.00000000000E+00  0.00000000000E+00  0.14999999963E+04  0.15000000000E+04  0.10566000000E+00 0.  1.
        994   -1    0    0    0    0 -0.00000000000E+00 -0.00000000000E+00  0.11368683772E-12  0.17120000000E+03  0.17120000000E+03 0.  0.
         13    1    1    2    0    0  0.10271472408E+02  0.61470043819E+01  0.15652749427E+02  0.19705545843E+02  0.10566000000E+00 0.  1.
        994    1    1    2    0    0 -0.71358352241E+01 -0.47277271677E+01  0.43598762840E+01  0.17146929775E+03  0.17120000000E+03 0.  0.
        998    1    1    2    0    0 -0.31356371841E+01 -0.14192772142E+01  0.14799873706E+04  0.14800251564E+04  0.10000000000E+02 0.  1.
</event>
<event>
 5    1  0.9616644E-009  0.3851900E+03  0.7957747E-01  0.3428867E+00
         13   -1    0    0    0    0  0.00000000000E+00  0.00000000000E+00  0.14999999963E+04  0.15000000000E+04  0.10566000000E+00 0. -1.
        994   -1    0    0    0    0 -0.00000000000E+00 -0.00000000000E+00  0.11368683772E-12  0.17120000000E+03  0.17120000000E+03 0.  0.
         13    1    1    2    0    0 -0.12777791110E+02 -0.18733333393E+02  0.12560463983E+03  0.12763520845E+03  0.10566000000E+00 0. -1.
        994    1    1    2    0    0  0.27719859509E+02  0.38644165061E+02  0.90050037436E+01  0.17791091084E+03  0.17120000000E+03 0.  0.
        998    1    1    2    0    0 -0.14942068400E+02 -0.19910831668E+02  0.13653903527E+04  0.13656538807E+04  0.10000000000E+02 0. -1.
</event>
<event>
 5    1  0.9130022E-009  0.3832996E+03  0.7957747E-01  0.3436916E+00
         13   -1    0    0    0    0  0.00000000000E+00  0.00000000000E+00  0.14999999963E+04  0.15000000000E+04  0.10566000000E+00 0.  1.
        994   -1    0    0    0    0 -0.00000000000E+00 -0.00000000000E+00  0.11368683772E-12  0.17120000000E+03  0.17120000000E+03 0.  0.
         13    1    1    2    0    0  0.27171166587E+02  0.77346135745E+01  0.15042186257E+03  0.15305177047E+03  0.10566000000E+00 0.  1.
        994    1    1    2    0    0 -0.24464607051E+02 -0.54191110667E+01  0.45558175467E+01  0.17308402363E+03  0.17120000000E+03 0.  0.
        998    1    1    2    0    0 -0.27065595358E+01 -0.23155025078E+01  0.13450223162E+04  0.13450642059E+04  0.10000000000E+02 0.  1.
</event>
<event>
 5    1  0.9130022E-009  0.3830810E+03  0.7957747E-01  0.3437852E+00
         13   -1    0    0    0    0  0.00000000000E+00  0.00000000000E+00  0.14999999963E+04  0.15000000000E+04  0.10566000000E+00 0.  1.
        994   -1    0    0    0    0 -0.00000000000E+00 -0.00000000000E+00  0.11368683772E-12  0.17120000000E+03  0.17120000000E+03 0.  0.
         13    1    1    2    0    0 -0.17343761707E+02  0.79394062373E+01  0.80484107941E+02  0.82713620623E+02  0.10566000000E+00 0.  1.
        994    1    1    2    0    0 -0.14245831507E+02 -0.73796890522E+00  0.32595593672E+01  0.17182419225E+03  0.17120000000E+03 0.  0.
        998    1    1    2    0    0  0.31589593214E+02 -0.72014373321E+01  0.14162563290E+04  0.14166621871E+04  0.10000000000E+02 0.  1.
</event>
<event>
 5    1  0.9130022E-009  0.3832670E+03  0.7957747E-01  0.3437055E+00
         13   -1    0    0    0    0  0.00000000000E+00  0.00000000000E+00  0.14999999963E+04  0.15000000000E+04  0.10566000000E+00 0. -1.
        994   -1    0    0    0    0 -0.00000000000E+00 -0.00000000000E+00  0.11368683772E-12  0.17120000000E+03  0.17120000000E+03 0.  0.
         13    1    1    2    0    0 -0.93773846757E+01 -0.22810798630E+02  0.10977482060E+03  0.11251128956E+03  0.10566000000E+00 0. -1.
        994    1    1    2    0    0  0.16286642732E+02  0.25942980646E+02  0.56023185148E+01  0.17400896227E+03  0.17120000000E+03 0.  0.
        998    1    1    2    0    0 -0.69092580560E+01 -0.31321820152E+01  0.13846228572E+04  0.13846797482E+04  0.10000000000E+02 0. -1.
</event>
<event>
 5    1  0.9130022E-009  0.3805224E+03  0.7957747E-01  0.3448887E+00
         13   -1    0    0    0    0  0.00000000000E+00  0.00000000000E+00  0.14999999963E+04  0.15000000000E+04  0.10566000000E+00 0. -1.
        994   -1    0    0    0    0 -0.00000000000E+00 -0.00000000000E+00  0.11368683772E-12  0.17120000000E+03  0.17120000000E+03 0.  0.
         13    1    1    2    0    0 -0.13579514370E+03  0.15979078399E+03  0.97628666616E+03  0.99855349451E+03  0.10566000000E+00 0. -1.
        994    1    1    2    0    0  0.13356041467E+03 -0.17623082158E+03  0.18935703076E+03  0.33772949522E+03  0.17120000000E+03 0.  0.
        998    1    1    2    0    0  0.22347290325E+01  0.16440037591E+02  0.33435629936E+03  0.33491701027E+03  0.10000000000E+02 0. -1.
</event>
<event>
 5    1  0.9130022E-009  0.3779086E+03  0.7957747E-01  0.3460316E+00
         13   -1    0    0    0    0  0.00000000000E+00  0.00000000000E+00  0.14999999963E+04  0.15000000000E+04  0.10566000000E+00 0.  1.
        994   -1    0    0    0    0 -0.00000000000E+00 -0.00000000000E+00  0.11368683772E-12  0.17120000000E+03  0.17120000000E+03 0.  0.
         13    1    1    2    0    0 -0.18371999772E+02  0.26022663246E+02  0.91822676217E+02  0.97191174547E+02  0.10566000000E+00 0.  1.
        994    1    1    2    0    0  0.35945385229E+02 -0.10603563081E+02  0.99350106257E+01  0.17553532609E+03  0.17120000000E+03 0.  0.
        998    1    1    2    0    0 -0.17573385457E+02 -0.15419100164E+02  0.13982423094E+04  0.13984734994E+04  0.10000000000E+02 0.  1.
</event>
<event>
 5    1  0.9130022E-009  0.3805431E+03  0.7957747E-01  0.3448797E+00
         13   -1    0    0    0    0  0.00000000000E+00  0.00000000000E+00  0.14999999963E+04  0.15000000000E+04  0.10566000000E+00 0.  1.
        994   -1    0    0    0    0 -0.00000000000E+00 -0.00000000000E+00  0.11368683772E-12  0.17120000000E+03  0.17120000000E+03 0.  0.
         13    1    1    2    0    0 -0.19989861253E+02 -0.34402741041E+02  0.21870322181E+03  0.22229317025E+03  0.10566000000E+00 0.  1.
        994    1    1    2    0    0  0.17613162131E+02  0.64992709599E+01  0.50362566703E+01  0.17229993582E+03  0.17120000000E+03 0.  0.
        998    1    1    2    0    0  0.23766991212E+01  0.27903470081E+02  0.12762605178E+04  0.12766068939E+04  0.10000000000E+02 0.  1.
</event>
<event>
 5    1  0.9130022E-009  0.3798601E+03  0.7957747E-01  0.3451768E+00
         13   -1    0    0    0    0  0.00000000000E+00  0.00000000000E+00  0.14999999963E+04  0.15000000000E+04  0.10566000000E+00 0.  1.
        994   -1    0    0    0    0 -0.00000000000E+00 -0.00000000000E+00  0.11368683772E-12  0.17120000000E+03  0.17120000000E+03 0.  0.
         13    1    1    2    0    0 -0.43606087591E+00  0.51608522174E+02  0.25151613701E+03  0.25675670984E+03  0.10566000000E+00 0.  1.
        994    1    1    2    0    0  0.20675268383E+01 -0.57545209782E+02  0.15373965504E+02  0.18127747971E+03  0.17120000000E+03 0.  0.
        998    1    1    2    0    0 -0.16314659624E+01  0.59366876077E+01  0.12331098938E+04  0.12331658104E+04  0.10000000000E+02 0.  1.
</event>
<event>
 5    1  0.9130022E-009  0.3812046E+03  0.7957747E-01  0.3445930E+00
         13   -1    0    0    0    0  0.00000000000E+00  0.00000000000E+00  0.14999999963E+04  0.15000000000E+04  0.10566000000E+00 0. -1.
        994   -1    0    0    0    0 -0.00000000000E+00 -0.00000000000E+00  0.11368683772E-12  0.17120000000E+03  0.17120000000E+03 0.  0.
         13    1    1    2    0    0  0.90008291693E+01 -0.96702550770E+01  0.22920898390E+02  0.26455765081E+02  0.10566000000E+00 0. -1.
        994    1    1    2    0    0 -0.14005799533E+02  0.79175456859E+01  0.43886823933E+01  0.17201032086E+03  0.17120000000E+03 0.  0.
        998    1    1    2    0    0  0.50049703635E+01  0.17527093912E+01  0.14726904155E+04  0.14727339141E+04  0.10000000000E+02 0. -1.
</event>
<event>
 5    1  0.9130022E-009  0.3811738E+03  0.7957747E-01  0.3446063E+00
         13   -1    0    0    0    0  0.00000000000E+00  0.00000000000E+00  0.14999999963E+04  0.15000000000E+04  0.10566000000E+00 0. -1.
        994   -1    0    0    0    0 -0.00000000000E+00 -0.00000000000E+00  0.11368683772E-12  0.17120000000E+03  0.17120000000E+03 0.  0.
         13    1    1    2    0    0 -0.20779148247E+02 -0.12690521769E+02  0.80416228897E+02  0.84021445945E+02  0.10566000000E+00 0. -1.
        994    1    1    2    0    0  0.18225529026E+02  0.91661015203E+01  0.49289075266E+01  0.17248165542E+03  0.17120000000E+03 0.  0.
        998    1    1    2    0    0  0.25536192217E+01  0.35244202486E+01  0.14146548599E+04  0.14146968986E+04  0.10000000000E+02 0. -1.
</event>
<event>
 5    1  0.9130022E-009  0.3835494E+03  0.7957747E-01  0.3435848E+00
         13   -1    0    0    0    0  0.00000000000E+00  0.00000000000E+00  0.14999999963E+04  0.15000000000E+04  0.10566000000E+00 0. -1.
        994   -1    0    0    0    0 -0.00000000000E+00 -0.00000000000E+00  0.11368683772E-12  0.17120000000E+03  0.17120000000E+03 0.  0.
         13    1    1    2    0    0 -0.35856015067E+00 -0.19778257934E+02  0.88314735376E+02  0.90503103266E+02  0.10566000000E+00 0. -1.
        994    1    1    2    0    0 -0.19304393266E+02  0.27078610324E+01  0.36086107133E+01  0.17234399955E+03  0.17120000000E+03 0.  0.
        998    1    1    2    0    0  0.19662953417E+02  0.17070396901E+02  0.14080766502E+04  0.14083528972E+04  0.10000000000E+02 0. -1.
</event>
<event>
 5    1  0.9130022E-009  0.3831186E+03  0.7957747E-01  0.3437691E+00
         13   -1    0    0    0    0  0.00000000000E+00  0.00000000000E+00  0.14999999963E+04  0.15000000000E+04  0.10566000000E+00 0. -1.
        994   -1    0    0    0    0 -0.00000000000E+00 -0.00000000000E+00  0.11368683772E-12  0.17120000000E+03  0.17120000000E+03 0.  0.
         13    1    1    2    0    0  0.13454378368E+02  0.13860499004E+02  0.87618528483E+02  0.89722636093E+02  0.10566000000E+00 0. -1.
        994    1    1    2    0    0  0.18311229881E+02  0.95789561482E+01  0.39814498287E+01  0.17248869378E+03  0.17120000000E+03 0.  0.
        998    1    1    2    0    0 -0.31765608249E+02 -0.23439455152E+02  0.14084000180E+04  0.14089886701E+04  0.10000000000E+02 0. -1.
</event>
<event>
 5    1  0.9130022E-009  0.3784758E+03  0.7957747E-01  0.3457822E+00
         13   -1    0    0    0    0  0.00000000000E+00  0.00000000000E+00  0.14999999963E+04  0.15000000000E+04  0.10566000000E+00 0. -1.
        994   -1    0    0    0    0 -0.00000000000E+00 -0.00000000000E+00  0.11368683772E-12  0.17120000000E+03  0.17120000000E+03 0.  0.
         13    1    1    2    0    0 -0.14661495372E+02 -0.23857939526E+02  0.85759692088E+02  0.90215833844E+02  0.10566000000E+00 0. -1.
        994    1    1    2    0    0 -0.49071323625E+01 -0.77971506285E+00  0.49874856767E+01  0.17134469037E+03  0.17120000000E+03 0.  0.
        998    1    1    2    0    0  0.19568627735E+02  0.24637654589E+02  0.14092528185E+04  0.14096394758E+04  0.10000000000E+02 0. -1.
</event>
<event>
 5    1  0.9130022E-009  0.3843433E+03  0.7957747E-01  0.3432462E+00
         13   -1    0    0    0    0  0.00000000000E+00  0.00000000000E+00  0.14999999963E+04  0.15000000000E+04  0.10566000000E+00 0. -1.
        994   -1    0    0    0    0 -0.00000000000E+00 -0.00000000000E+00  0.11368683772E-12  0.17120000000E+03  0.17120000000E+03 0.  0.
         13    1    1    2    0    0  0.21484902587E+03  0.30122126482E+02  0.11703526876E+04  0.11902910866E+04  0.10566000000E+00 0. -1.
        994    1    1    2    0    0 -0.21946767946E+03 -0.22656448998E+02  0.18350040515E+03  0.33415747141E+03  0.17120000000E+03 0.  0.
        998    1    1    2    0    0  0.46186535867E+01 -0.74656774837E+01  0.14614690356E+03  0.14675144197E+03  0.10000000000E+02 0.  1.
</event>
<event>
 5    1  0.9130022E-009  0.3830327E+03  0.7957747E-01  0.3438059E+00
         13   -1    0    0    0    0  0.00000000000E+00  0.00000000000E+00  0.14999999963E+04  0.15000000000E+04  0.10566000000E+00 0. -1.
        994   -1    0    0    0    0 -0.00000000000E+00 -0.00000000000E+00  0.11368683772E-12  0.17120000000E+03  0.17120000000E+03 0.  0.
         13    1    1    2    0    0 -0.98207304138E+01 -0.14719577862E+02  0.56866063747E+02  0.59555630199E+02  0.10566000000E+00 0. -1.
        994    1    1    2    0    0  0.10542182074E+02  0.17035994426E+02  0.39395822109E+01  0.17241323330E+03  0.17120000000E+03 0.  0.
        998    1    1    2    0    0 -0.72145166021E+00 -0.23164165642E+01  0.14391943503E+04  0.14392311365E+04  0.10000000000E+02 0. -1.
</event>
<event>
 5    1  0.9130022E-009  0.3721893E+03  0.7957747E-01  0.3485890E+00
         13   -1    0    0    0    0  0.00000000000E+00  0.00000000000E+00  0.14999999963E+04  0.15000000000E+04  0.10566000000E+00 0. -1.
        994   -1    0    0    0    0 -0.00000000000E+00 -0.00000000000E+00  0.11368683772E-12  0.17120000000E+03  0.17120000000E+03 0.  0.
         13    1    1    2    0    0 -0.12110738261E+02  0.64421476466E+02  0.13510281854E+03  0.15016517357E+03  0.10566000000E+00 0. -1.
        994    1    1    2    0    0  0.16723969314E+02 -0.10223725839E+03  0.50938072968E+02  0.20648553322E+03  0.17120000000E+03 0.  0.
        998    1    1    2    0    0 -0.46132310529E+01  0.37815781927E+02  0.13139591048E+04  0.13145492932E+04  0.10000000000E+02 0. -1.
</event>
<event>
 5    1  0.9130022E-009  0.2703827E+03  0.7957747E-01  0.4133139E+00
         13   -1    0    0    0    0  0.00000000000E+00  0.00000000000E+00  0.14999999963E+04  0.15000000000E+04  0.10566000000E+00 0.  1.
        994   -1    0    0    0    0 -0.00000000000E+00 -0.00000000000E+00  0.11368683772E-12  0.17120000000E+03  0.17120000000E+03 0.  0.
         13    1    1    2    0    0 -0.61037745522E+02 -0.10085970165E+03  0.67975440572E+03  0.68990169521E+03  0.10566000000E+00 0.  1.
        994    1    1    2    0    0  0.18827018137E+02 -0.34283513693E+02  0.29690920848E+02  0.17810335961E+03  0.17120000000E+03 0.  0.
        998    1    1    2    0    0  0.42210727385E+02  0.13514321535E+03  0.79055466971E+03  0.80319494518E+03  0.10000000000E+02 0.  1.
</event>
<event>
 5    1  0.9130022E-009  0.3819241E+03  0.7957747E-01  0.3442823E+00
         13   -1    0    0    0    0  0.00000000000E+00  0.00000000000E+00  0.14999999963E+04  0.15000000000E+04  0.10566000000E+00 0.  1.
        994   -1    0    0    0    0 -0.00000000000E+00 -0.00000000000E+00  0.11368683772E-12  0.17120000000E+03  0.17120000000E+03 0.  0.
         13    1    1    2    0    0  0.28036410465E+02 -0.10785131203E+02  0.13867715113E+03  0.14189335000E+03  0.10566000000E+00 0.  1.
        994    1    1    2    0    0 -0.19824754168E+02  0.65879359345E+01  0.46160389316E+01  0.17253164809E+03  0.17120000000E+03 0.  0.
        998    1    1    2    0    0 -0.82116562970E+01  0.41971952688E+01  0.13567068062E+04  0.13567750019E+04  0.10000000000E+02 0.  1.
</event>
<event>
 5    1  0.9130022E-009  0.3848549E+03  0.7957747E-01  0.3430288E+00
         13   -1    0    0    0    0  0.00000000000E+00  0.00000000000E+00  0.14999999963E+04  0.15000000000E+04  0.10566000000E+00 0. -1.
        994   -1    0    0    0    0 -0.00000000000E+00 -0.00000000000E+00  0.11368683772E-12  0.17120000000E+03  0.17120000000E+03 0.  0.
         13    1    1    2    0    0  0.94892137776E+01  0.62887788611E+01  0.38633680666E+02  0.40276126471E+02  0.10566000000E+00 0. -1.
        994    1    1    2    0    0 -0.64694911983E+01  0.33419192968E+01  0.18766602139E+01  0.17136506235E+03  0.17120000000E+03 0.  0.
        998    1    1    2    0    0 -0.30197225793E+01 -0.96306981579E+01  0.14594896554E+04  0.14595588112E+04  0.10000000000E+02 0. -1.
</event>
<event>
 5    1  0.9130022E-009  0.3838792E+03  0.7957747E-01  0.3434440E+00
         13   -1    0    0    0    0  0.00000000000E+00  0.00000000000E+00  0.14999999963E+04  0.15000000000E+04  0.10566000000E+00 0.  1.
        994   -1    0    0    0    0 -0.00000000000E+00 -0.00000000000E+00  0.11368683772E-12  0.17120000000E+03  0.17120000000E+03 0.  0.
         13    1    1    2    0    0  0.83592825475E+01  0.90674342240E+01  0.33117922899E+02  0.35339835162E+02  0.10566000000E+00 0.  1.
        994    1    1    2    0    0 -0.15386972102E+02 -0.76613256773E+01  0.31634215707E+01  0.17208980812E+03  0.17120000000E+03 0.  0.
        998    1    1    2    0    0  0.70276895549E+01 -0.14061085468E+01  0.14637186518E+04  0.14637703567E+04  0.10000000000E+02 0.  1.
</event>
<event>
 5    1  0.9130022E-009  0.3742762E+03  0.7957747E-01  0.3476466E+00
         13   -1    0    0    0    0  0.00000000000E+00  0.00000000000E+00  0.14999999963E+04  0.15000000000E+04  0.10566000000E+00 0.  1.
        994   -1    0    0    0    0 -0.00000000000E+00 -0.00000000000E+00  0.11368683772E-12  0.17120000000E+03  0.17120000000E+03 0.  0.
         13    1    1    2    0    0  0.22392579798E+02 -0.84427704133E+01  0.15825003974E+02  0.28690589347E+02  0.10566000000E+00 0.  1.
        994    1    1    2    0    0 -0.22410010184E+02  0.55269226013E+01  0.15111105666E+02  0.17340859536E+03  0.17120000000E+03 0.  0.
        998    1    1    2    0    0  0.17430385795E-01  0.29158478121E+01  0.14690638866E+04  0.14691008153E+04  0.10000000000E+02 0.  1.
</event>
<event>
 5    1  0.9130022E-009  0.3804920E+03  0.7957747E-01  0.3449019E+00
         13   -1    0    0    0    0  0.00000000000E+00  0.00000000000E+00  0.14999999963E+04  0.15000000000E+04  0.10566000000E+00 0.  1.
        994   -1    0    0    0    0 -0.00000000000E+00 -0.00000000000E+00  0.11368683772E-12  0.17120000000E+03  0.17120000000E+03 0.  0.
         13    1    1    2    0    0 -0.36796437233E+02  0.10366222243E+02  0.19552745419E+03  0.19922959836E+03  0.10566000000E+00 0.  1.
        994    1    1    2    0    0  0.14345944602E+02 -0.84727291839E+01  0.48119891337E+01  0.17207611254E+03  0.17120000000E+03 0.  0.
        998    1    1    2    0    0  0.22450492631E+02 -0.18934930593E+01  0.12996605530E+04  0.12998942891E+04  0.10000000000E+02 0.  1.
</event>
<event>
 5    1  0.9130022E-009  0.3788227E+03  0.7957747E-01  0.3456301E+00
         13   -1    0    0    0    0  0.00000000000E+00  0.00000000000E+00  0.14999999963E+04  0.15000000000E+04  0.10566000000E+00 0.  1.
        994   -1    0    0    0    0 -0.00000000000E+00 -0.00000000000E+00  0.11368683772E-12  0.17120000000E+03  0.17120000000E+03 0.  0.
         13    1    1    2    0    0 -0.32686658241E+02 -0.26501703497E+02  0.22378454381E+03  0.22770659000E+03  0.10566000000E+00 0.  1.
        994    1    1    2    0    0 -0.16226448129E+02  0.21521492423E+02  0.71704525903E+01  0.17345699077E+03  0.17120000000E+03 0.  0.
        998    1    1    2    0    0  0.48913106371E+02  0.49802110736E+01  0.12690449999E+04  0.12700364192E+04  0.10000000000E+02 0.  1.
</event>
<event>
 5    1  0.9130022E-009  0.3854635E+03  0.7957747E-01  0.3427709E+00
         13   -1    0    0    0    0  0.00000000000E+00  0.00000000000E+00  0.14999999963E+04  0.15000000000E+04  0.10566000000E+00 0.  1.
        994   -1    0    0    0    0 -0.00000000000E+00 -0.00000000000E+00  0.11368683772E-12  0.17120000000E+03  0.17120000000E+03 0.  0.
         13    1    1    2    0    0  0.41482037917E+01  0.15474469562E+02  0.78517850784E+02  0.80135702772E+02  0.10566000000E+00 0.  1.
        994    1    1    2    0    0  0.11328856084E+02 -0.37176692035E+02  0.63758889903E+01  0.17567168631E+03  0.17120000000E+03 0.  0.
        998    1    1    2    0    0 -0.15477059876E+02  0.21702222473E+02  0.14151062565E+04  0.14153926109E+04  0.10000000000E+02 0.  1.
</event>
<event>
 5    1  0.9130022E-009  0.3944194E+03  0.7957747E-01  0.3390680E+00
         13   -1    0    0    0    0  0.00000000000E+00  0.00000000000E+00  0.14999999963E+04  0.15000000000E+04  0.10566000000E+00 0.  1.
        994   -1    0    0    0    0 -0.00000000000E+00 -0.00000000000E+00  0.11368683772E-12  0.17120000000E+03  0.17120000000E+03 0.  0.
         13    1    1    2    0    0  0.10151722724E+03  0.39452023131E+02  0.32635658481E+03  0.34405063750E+03  0.10566000000E+00 0.  1.
        994    1    1    2    0    0  0.18301529880E+02 -0.57552327258E+02  0.38582277077E+02  0.18559431153E+03  0.17120000000E+03 0.  0.
        998    1    1    2    0    0 -0.11981875712E+03  0.18100304127E+02  0.11350611344E+04  0.11415550510E+04  0.10000000000E+02 0.  1.
</event>
<event>
 5    1  0.9130022E-009  0.3825096E+03  0.7957747E-01  0.3440303E+00
         13   -1    0    0    0    0  0.00000000000E+00  0.00000000000E+00  0.14999999963E+04  0.15000000000E+04  0.10566000000E+00 0. -1.
        994   -1    0    0    0    0 -0.00000000000E+00 -0.00000000000E+00  0.11368683772E-12  0.17120000000E+03  0.17120000000E+03 0.  0.
         13    1    1    2    0    0  0.10057954648E+02 -0.47585683826E+01  0.20119965791E+02  0.22991968428E+02  0.10566000000E+00 0. -1.
        994    1    1    2    0    0 -0.14112329063E+02  0.11960088872E+01  0.35369710153E+01  0.17182123976E+03  0.17120000000E+03 0.  0.
        998    1    1    2    0    0  0.40543744151E+01  0.35625594954E+01  0.14763430595E+04  0.14763867918E+04  0.10000000000E+02 0. -1.
</event>
<event>
 5    1  0.9130022E-009  0.3801942E+03  0.7957747E-01  0.3450313E+00
         13   -1    0    0    0    0  0.00000000000E+00  0.00000000000E+00  0.14999999963E+04  0.15000000000E+04  0.10566000000E+00 0. -1.
        994   -1    0    0    0    0 -0.00000000000E+00 -0.00000000000E+00  0.11368683772E-12  0.17120000000E+03  0.17120000000E+03 0.  0.
         13    1    1    2    0    0  0.14226055668E+02 -0.35662022222E+02  0.19767634244E+03  0.20137057385E+03  0.10566000000E+00 0. -1.
        994    1    1    2    0    0 -0.10783200730E+02  0.73584218831E+01  0.46046767346E+01  0.17175874603E+03  0.17120000000E+03 0.  0.
        998    1    1    2    0    0 -0.34428549385E+01  0.28303600339E+02  0.12977189771E+04  0.12980706801E+04  0.10000000000E+02 0. -1.
</event>
<event>
 5    1  0.9130022E-009  0.3797028E+03  0.7957747E-01  0.3452454E+00
         13   -1    0    0    0    0  0.00000000000E+00  0.00000000000E+00  0.14999999963E+04  0.15000000000E+04  0.10566000000E+00 0.  1.
        994   -1    0    0    0    0 -0.00000000000E+00 -0.00000000000E+00  0.11368683772E-12  0.17120000000E+03  0.17120000000E+03 0.  0.
         13    1    1    2    0    0  0.31895569943E+02 -0.62689066547E+01  0.11018640155E+03  0.11488115956E+03  0.10566000000E+00 0.  1.
        994    1    1    2    0    0 -0.35240062565E+02  0.22319850926E+02  0.10127844349E+02  0.17649943622E+03  0.17120000000E+03 0.  0.
        998    1    1    2    0    0  0.33444926223E+01 -0.16050944271E+02  0.13796857504E+04  0.13798194042E+04  0.10000000000E+02 0.  1.
</event>
<event>
 5    1  0.9130022E-009  0.3806941E+03  0.7957747E-01  0.3448142E+00
         13   -1    0    0    0    0  0.00000000000E+00  0.00000000000E+00  0.14999999963E+04  0.15000000000E+04  0.10566000000E+00 0. -1.
        994   -1    0    0    0    0 -0.00000000000E+00 -0.00000000000E+00  0.11368683772E-12  0.17120000000E+03  0.17120000000E+03 0.  0.
         13    1    1    2    0    0  0.14421677892E+02  0.62596198305E+01  0.30620238191E+02  0.34420601164E+02  0.10566000000E+00 0. -1.
        994    1    1    2    0    0 -0.16145514359E+02 -0.42938554589E+01  0.47146696466E+01  0.17207783977E+03  0.17120000000E+03 0.  0.
        998    1    1    2    0    0  0.17238364666E+01 -0.19657643716E+01  0.14646650884E+04  0.14647015591E+04  0.10000000000E+02 0. -1.
</event>
<event>
 5    1  0.9130022E-009  0.3786501E+03  0.7957747E-01  0.3457057E+00
         13   -1    0    0    0    0  0.00000000000E+00  0.00000000000E+00  0.14999999963E+04  0.15000000000E+04  0.10566000000E+00 0.  1.
        994   -1    0    0    0    0 -0.00000000000E+00 -0.00000000000E+00  0.11368683772E-12  0.17120000000E+03  0.17120000000E+03 0.  0.
         13    1    1    2    0    0  0.10603475109E+02 -0.23424264268E+01  0.99556559783E+01  0.14732511529E+02  0.10566000000E+00 0.  1.
        994    1    1    2    0    0 -0.13587429366E+02  0.21760702349E+01  0.54521835102E+01  0.17183864473E+03  0.17120000000E+03 0.  0.
        998    1    1    2    0    0  0.29839542565E+01  0.16635619191E+00  0.14845921568E+04  0.14846288437E+04  0.10000000000E+02 0.  1.
</event>
<event>
 5    1  0.9130022E-009  0.3745026E+03  0.7957747E-01  0.3475450E+00
         13   -1    0    0    0    0  0.00000000000E+00  0.00000000000E+00  0.14999999963E+04  0.15000000000E+04  0.10566000000E+00 0.  1.
        994   -1    0    0    0    0 -0.00000000000E+00 -0.00000000000E+00  0.11368683772E-12  0.17120000000E+03  0.17120000000E+03 0.  0.
         13    1    1    2    0    0 -0.10723157707E+03 -0.13128601648E+03  0.95174318526E+03  0.96672112374E+03  0.10566000000E+00 0.  1.
        994    1    1    2    0    0  0.98064075703E+02  0.11700634533E+03  0.90962115902E+02  0.24676019598E+03  0.17120000000E+03 0.  0.
        998    1    1    2    0    0  0.91675013673E+01  0.14279671153E+02  0.45729469512E+03  0.45771868028E+03  0.10000000000E+02 0.  0.
</event>
<event>
 5    1  0.9130022E-009  0.3825894E+03  0.7957747E-01  0.3439961E+00
         13   -1    0    0    0    0  0.00000000000E+00  0.00000000000E+00  0.14999999963E+04  0.15000000000E+04  0.10566000000E+00 0.  1.
        994   -1    0    0    0    0 -0.00000000000E+00 -0.00000000000E+00  0.11368683772E-12  0.17120000000E+03  0.17120000000E+03 0.  0.
         13    1    1    2    0    0  0.48749593649E+01  0.22578668288E+02  0.92950412124E+02  0.95777616218E+02  0.10566000000E+00 0.  1.
        994    1    1    2    0    0  0.27861889786E-01 -0.15456470256E+02  0.36239741909E+01  0.17193451206E+03  0.17120000000E+03 0.  0.
        998    1    1    2    0    0 -0.49028212547E+01 -0.71221980317E+01  0.14034256100E+04  0.14034878717E+04  0.10000000000E+02 0.  1.
</event>
<event>
 5    1  0.9130022E-009  0.3818671E+03  0.7957747E-01  0.3443069E+00
         13   -1    0    0    0    0  0.00000000000E+00  0.00000000000E+00  0.14999999963E+04  0.15000000000E+04  0.10566000000E+00 0. -1.
        994   -1    0    0    0    0 -0.00000000000E+00 -0.00000000000E+00  0.11368683772E-12  0.17120000000E+03  0.17120000000E+03 0.  0.
         13    1    1    2    0    0  0.41840460234E+02 -0.41462447235E+02  0.34330713502E+03  0.34832392792E+03  0.10566000000E+00 0. -1.
        994    1    1    2    0    0 -0.44996650948E+02  0.64581362570E+02  0.24058328197E+02  0.18995708500E+03  0.17120000000E+03 0.  0.
        998    1    1    2    0    0  0.31561907145E+01 -0.23118915334E+02  0.11326345331E+04  0.11329189871E+04  0.10000000000E+02 0.  1.
</event>
<event>
 5    1  0.9130022E-009  0.3932428E+03  0.7957747E-01  0.3395448E+00
         13   -1    0    0    0    0  0.00000000000E+00  0.00000000000E+00  0.14999999963E+04  0.15000000000E+04  0.10566000000E+00 0. -1.
        994   -1    0    0    0    0 -0.00000000000E+00 -0.00000000000E+00  0.11368683772E-12  0.17120000000E+03  0.17120000000E+03 0.  0.
         13    1    1    2    0    0 -0.30525885090E+02  0.16464208241E+02  0.14703214354E+02  0.37670883848E+02  0.10566000000E+00 0. -1.
        994    1    1    2    0    0  0.34393229399E+02 -0.36665590744E+02  0.33492387826E+02  0.18154459456E+03  0.17120000000E+03 0.  0.
        998    1    1    2    0    0 -0.38673443096E+01  0.20201382504E+02  0.14518043941E+04  0.14519845216E+04  0.10000000000E+02 0. -1.
</event>
<event>
 5    1  0.9130022E-009  0.3700499E+03  0.7957747E-01  0.3495662E+00
         13   -1    0    0    0    0  0.00000000000E+00  0.00000000000E+00  0.14999999963E+04  0.15000000000E+04  0.10566000000E+00 0. -1.
        994   -1    0    0    0    0 -0.00000000000E+00 -0.00000000000E+00  0.11368683772E-12  0.17120000000E+03  0.17120000000E+03 0.  0.
         13    1    1    2    0    0 -0.33619283984E+02 -0.37775812722E+02  0.12453087292E+03  0.13440691112E+03  0.10566000000E+00 0. -1.
        994    1    1    2    0    0  0.30751065824E+02  0.40635519858E+02  0.18274698020E+02  0.17955577994E+03  0.17120000000E+03 0.  0.
        998    1    1    2    0    0  0.28682181605E+01 -0.28597071357E+01  0.13571944253E+04  0.13572373089E+04  0.10000000000E+02 0. -1.
</event>
<event>
 5    1  0.9130022E-009  0.3735794E+03  0.7957747E-01  0.3479600E+00
         13   -1    0    0    0    0  0.00000000000E+00  0.00000000000E+00  0.14999999963E+04  0.15000000000E+04  0.10566000000E+00 0.  1.
        994   -1    0    0    0    0 -0.00000000000E+00 -0.00000000000E+00  0.11368683772E-12  0.17120000000E+03  0.17120000000E+03 0.  0.
         13    1    1    2    0    0 -0.39759621430E+02  0.33843407064E+02  0.11267245693E+03  0.12418251653E+03  0.10566000000E+00 0.  1.
        994    1    1    2    0    0 -0.11727136623E+02 -0.20949732359E+02  0.14887513910E+02  0.17351511487E+03  0.17120000000E+03 0.  0.
        998    1    1    2    0    0  0.51486758053E+02 -0.12893674705E+02  0.13724400254E+04  0.13735023686E+04  0.10000000000E+02 0.  1.
</event>
<event>
 5    1  0.9130022E-009  0.3775561E+03  0.7957747E-01  0.3461869E+00
         13   -1    0    0    0    0  0.00000000000E+00  0.00000000000E+00  0.14999999963E+04  0.15000000000E+04  0.10566000000E+00 0.  1.
        994   -1    0    0    0    0 -0.00000000000E+00 -0.00000000000E+00  0.11368683772E-12  0.17120000000E+03  0.17120000000E+03 0.  0.
         13    1    1    2    0    0 -0.46604850963E+01 -0.10384851113E+02  0.96526525754E+01  0.14924815568E+02  0.10566000000E+00 0.  1.
        994    1    1    2    0    0  0.30697903121E+01  0.73768997529E+01  0.55871320640E+01  0.17147739882E+03  0.17120000000E+03 0.  0.
        998    1    1    2    0    0  0.15906947842E+01  0.30079513596E+01  0.14847602116E+04  0.14847977856E+04  0.10000000000E+02 0.  1.
</event>
<event>
 5    1  0.9130022E-009  0.3803558E+03  0.7957747E-01  0.3449611E+00
         13   -1    0    0    0    0  0.00000000000E+00  0.00000000000E+00  0.14999999963E+04  0.15000000000E+04  0.10566000000E+00 0. -1.
        994   -1    0    0    0    0 -0.00000000000E+00 -0.00000000000E+00  0.11368683772E-12  0.17120000000E+03  0.17120000000E+03 0.  0.
         13    1    1    2    0    0  0.57945184655E+01 -0.23863107572E+02  0.75308281073E+02  0.79210938067E+02  0.10566000000E+00 0. -1.
        994    1    1    2    0    0  0.23361652295E+01  0.15115766177E+02  0.47351867768E+01  0.17194710247E+03  0.17120000000E+03 0.  0.
        998    1    1    2    0    0 -0.81306836949E+01  0.87473413955E+01  0.14199565284E+04  0.14200419595E+04  0.10000000000E+02 0. -1.
</event>
<event>
 5    1  0.9130022E-009  0.3816890E+03  0.7957747E-01  0.3443837E+00
         13   -1    0    0    0    0  0.00000000000E+00  0.00000000000E+00  0.14999999963E+04  0.15000000000E+04  0.10566000000E+00 0. -1.
        994   -1    0    0    0    0 -0.00000000000E+00 -0.00000000000E+00  0.11368683772E-12  0.17120000000E+03  0.17120000000E+03 0.  0.
         13    1    1    2    0    0 -0.26278718241E+02  0.23471681187E+02  0.16792748455E+03  0.17158421280E+03  0.10566000000E+00 0. -1.
        994    1    1    2    0    0  0.22817504204E+02 -0.28617071835E+02  0.77490112794E+01  0.17524001391E+03  0.17120000000E+03 0.  0.
        998    1    1    2    0    0  0.34612140373E+01  0.51453906487E+01  0.13243235005E+04  0.13243757733E+04  0.10000000000E+02 0. -1.
</event>
<event>
 5    1  0.9130022E-009  0.3755525E+03  0.7957747E-01  0.3470755E+00
         13   -1    0    0    0    0  0.00000000000E+00  0.00000000000E+00  0.14999999963E+04  0.15000000000E+04  0.10566000000E+00 0. -1.
        994   -1    0    0    0    0 -0.00000000000E+00 -0.00000000000E+00  0.11368683772E-12  0.17120000000E+03  0.17120000000E+03 0.  0.
         13    1    1    2    0    0  0.50404174714E+01 -0.28355160917E+02  0.62384718990E+02  0.68711609547E+02  0.10566000000E+00 0. -1.
        994    1    1    2    0    0  0.27095673528E+01  0.19478863070E+02  0.77086085162E+01  0.17249820436E+03  0.17120000000E+03 0.  0.
        998    1    1    2    0    0 -0.77499848242E+01  0.88762978476E+01  0.14299066688E+04  0.14299901861E+04  0.10000000000E+02 0. -1.
</event>
<event>
 5    1  0.9130022E-009  0.3734372E+03  0.7957747E-01  0.3480242E+00
         13   -1    0    0    0    0  0.00000000000E+00  0.00000000000E+00  0.14999999963E+04  0.15000000000E+04  0.10566000000E+00 0. -1.
        994   -1    0    0    0    0 -0.00000000000E+00 -0.00000000000E+00  0.11368683772E-12  0.17120000000E+03  0.17120000000E+03 0.  0.
         13    1    1    2    0    0 -0.86622958127E+00 -0.10905527884E+02  0.44369201778E+01  0.11805859428E+02  0.10566000000E+00 0. -1.
        994    1    1    2    0    0 -0.44477487728E+01  0.16538721755E+02  0.84863875214E+01  0.17226366581E+03  0.17120000000E+03 0.  0.
        998    1    1    2    0    0  0.53139783540E+01 -0.56331938703E+01  0.14870766886E+04  0.14871304748E+04  0.10000000000E+02 0. -1.
</event>
<event>
 5    1  0.9130022E-009  0.3737759E+03  0.7957747E-01  0.3478715E+00
         13   -1    0    0    0    0  0.00000000000E+00  0.00000000000E+00  0.14999999963E+04  0.15000000000E+04  0.10566000000E+00 0.  1.
        994   -1    0    0    0    0 -0.00000000000E+00 -0.00000000000E+00  0.11368683772E-12  0.17120000000E+03  0.17120000000E+03 0.  0.
         13    1    1    2    0    0  0.39391724273E+02  0.44139591391E+02  0.22815638878E+03  0.23570184636E+03  0.10566000000E+00 0.  1.
        994    1    1    2    0    0 -0.10721513231E+02 -0.45250644758E+02  0.14726289820E+02  0.17801369416E+03  0.17120000000E+03 0.  0.
        998    1    1    2    0    0 -0.28670211042E+02  0.11110533671E+01  0.12571173177E+04  0.12574844595E+04  0.10000000000E+02 0.  1.
</event>
<event>
 5    1  0.9130022E-009  0.3773542E+03  0.7957747E-01  0.3462760E+00
         13   -1    0    0    0    0  0.00000000000E+00  0.00000000000E+00  0.14999999963E+04  0.15000000000E+04  0.10566000000E+00 0.  1.
        994   -1    0    0    0    0 -0.00000000000E+00 -0.00000000000E+00  0.11368683772E-12  0.17120000000E+03  0.17120000000E+03 0.  0.
         13    1    1    2    0    0 -0.14386991027E+02  0.62307473945E+01  0.15024519867E+01  0.15750436499E+02  0.10566000000E+00 0.  1.
        994    1    1    2    0    0  0.10973861484E+02 -0.42379331405E+01  0.15378337308E+02  0.17229137811E+03  0.17120000000E+03 0.  0.
        998    1    1    2    0    0  0.34131295435E+01 -0.19928142540E+01  0.14831192070E+04  0.14831581854E+04  0.10000000000E+02 0.  1.
</event>
<event>
 5    1  0.9130022E-009  0.3857746E+03  0.7957747E-01  0.3426394E+00
         13   -1    0    0    0    0  0.00000000000E+00  0.00000000000E+00  0.14999999963E+04  0.15000000000E+04  0.10566000000E+00 0. -1.
        994   -1    0    0    0    0 -0.00000000000E+00 -0.00000000000E+00  0.11368683772E-12  0.17120000000E+03  0.17120000000E+03 0.  0.
         13    1    1    2    0    0 -0.75985509945E+01 -0.79550786906E+01  0.49703330145E+02  0.50906320293E+02  0.10566000000E+00 0. -1.
        994    1    1    2    0    0 -0.14191629884E+01  0.83439668145E+01  0.14811000454E+01  0.17141548782E+03  0.17120000000E+03 0.  0.
        998    1    1    2    0    0  0.90177139829E+01 -0.38888812391E+00  0.14488155661E+04  0.14488781919E+04  0.10000000000E+02 0. -1.
</event>
<event>
 5    1  0.9130022E-009  0.3722983E+03  0.7957747E-01  0.3485395E+00
         13   -1    0    0    0    0  0.00000000000E+00  0.00000000000E+00  0.14999999963E+04  0.15000000000E+04  0.10566000000E+00 0. -1.
        994   -1    0    0    0    0 -0.00000000000E+00 -0.00000000000E+00  0.11368683772E-12  0.17120000000E+03  0.17120000000E+03 0.  0.
         13    1    1    2    0    0 -0.67805406903E+01  0.88388475822E+02  0.35672161843E+03  0.36757152040E+03  0.10566000000E+00 0. -1.
        994    1    1    2    0    0 -0.54258950813E+02 -0.10145933364E+03  0.54948272220E+02  0.21346377385E+03  0.17120000000E+03 0.  0.
        998    1    1    2    0    0  0.61039491503E+02  0.13070857818E+02  0.10883301056E+04  0.10901647057E+04  0.10000000000E+02 0. -1.
</event>
<event>
 5    1  0.9130022E-009  0.3791207E+03  0.7957747E-01  0.3454996E+00
         13   -1    0    0    0    0  0.00000000000E+00  0.00000000000E+00  0.14999999963E+04  0.15000000000E+04  0.10566000000E+00 0.  1.
        994   -1    0    0    0    0 -0.00000000000E+00 -0.00000000000E+00  0.11368683772E-12  0.17120000000E+03  0.17120000000E+03 0.  0.
         13    1    1    2    0    0 -0.30414147136E+02 -0.29778278375E+02  0.22508009446E+03  0.22906947919E+03  0.10566000000E+00 0.  1.
        994    1    1    2    0    0  0.84129415668E+01  0.11749399321E+01  0.48196231004E+01  0.17147835676E+03  0.17120000000E+03 0.  0.
        998    1    1    2    0    0  0.22001205569E+02  0.28603338443E+02  0.12701002787E+04  0.12706521640E+04  0.10000000000E+02 0.  1.
</event>
<event>
 5    1  0.9130022E-009  0.3989854E+03  0.7957747E-01  0.3372441E+00
         13   -1    0    0    0    0  0.00000000000E+00  0.00000000000E+00  0.14999999963E+04  0.15000000000E+04  0.10566000000E+00 0. -1.
        994   -1    0    0    0    0 -0.00000000000E+00 -0.00000000000E+00  0.11368683772E-12  0.17120000000E+03  0.17120000000E+03 0.  0.
         13    1    1    2    0    0 -0.17337031517E+02  0.16210041257E+02 -0.13423781365E+01  0.23772909844E+02  0.10566000000E+00 0. -1.
        994    1    1    2    0    0  0.13609595177E+02 -0.11671043818E+02  0.28428926251E+02  0.17446798615E+03  0.17120000000E+03 0.  0.
        998    1    1    2    0    0  0.37274363395E+01 -0.45389974389E+01  0.14729134482E+04  0.14729591040E+04  0.10000000000E+02 0. -1.
</event>
<event>
 5    1  0.9130022E-009  0.3716981E+03  0.7957747E-01  0.3488123E+00
         13   -1    0    0    0    0  0.00000000000E+00  0.00000000000E+00  0.14999999963E+04  0.15000000000E+04  0.10566000000E+00 0. -1.
        994   -1    0    0    0    0 -0.00000000000E+00 -0.00000000000E+00  0.11368683772E-12  0.17120000000E+03  0.17120000000E+03 0.  0.
         13    1    1    2    0    0  0.12869645053E+02  0.31418513829E+02  0.67221872132E+02  0.75309641029E+02  0.10566000000E+00 0. -1.
        994    1    1    2    0    0 -0.72351951525E+01 -0.12827604138E+02  0.91300878399E+01  0.17207467559E+03  0.17120000000E+03 0.  0.
        998    1    1    2    0    0 -0.56344499006E+01 -0.18590909691E+02  0.14236480363E+04  0.14238156834E+04  0.10000000000E+02 0. -1.
</event>
<event>
 5    1  0.9130022E-009  0.3806751E+03  0.7957747E-01  0.3448224E+00
         13   -1    0    0    0    0  0.00000000000E+00  0.00000000000E+00  0.14999999963E+04  0.15000000000E+04  0.10566000000E+00 0. -1.
        994   -1    0    0    0    0 -0.00000000000E+00 -0.00000000000E+00  0.11368683772E-12  0.17120000000E+03  0.17120000000E+03 0.  0.
         13    1    1    2    0    0 -0.22865679408E+02  0.26854955263E+02  0.14458115444E+03  0.14882119909E+03  0.10566000000E+00 0. -1.
        994    1    1    2    0    0  0.73072203894E+00 -0.52867970883E+02  0.13174124919E+02  0.17966233291E+03  0.17120000000E+03 0.  0.
        998    1    1    2    0    0  0.22134957369E+02  0.26013015620E+02  0.13422447169E+04  0.13427164680E+04  0.10000000000E+02 0. -1.
</event>
<event>
 5    1  0.9130022E-009  0.3744562E+03  0.7957747E-01  0.3475658E+00
         13   -1    0    0    0    0  0.00000000000E+00  0.00000000000E+00  0.14999999963E+04  0.15000000000E+04  0.10566000000E+00 0. -1.
        994   -1    0    0    0    0 -0.00000000000E+00 -0.00000000000E+00  0.11368683772E-12  0.17120000000E+03  0.17120000000E+03 0.  0.
         13    1    1    2    0    0 -0.19850500417E+02 -0.87162661141E+01  0.34292212691E+02  0.40570712060E+02  0.10566000000E+00 0. -1.
        994    1    1    2    0    0 -0.31898541721E+02  0.14204502128E+02  0.11121747509E+02  0.17507831994E+03  0.17120000000E+03 0.  0.
        998    1    1    2    0    0  0.51749042138E+02 -0.54882360134E+01  0.14545860361E+04  0.14555509680E+04  0.10000000000E+02 0. -1.
</event>
<event>
 5    1  0.9130022E-009  0.3845804E+03  0.7957747E-01  0.3431454E+00
         13   -1    0    0    0    0  0.00000000000E+00  0.00000000000E+00  0.14999999963E+04  0.15000000000E+04  0.10566000000E+00 0. -1.
        994   -1    0    0    0    0 -0.00000000000E+00 -0.00000000000E+00  0.11368683772E-12  0.17120000000E+03  0.17120000000E+03 0.  0.
         13    1    1    2    0    0 -0.14764314662E+02 -0.27114851337E+01  0.59119992671E+02  0.60996080501E+02  0.10566000000E+00 0. -1.
        994    1    1    2    0    0  0.14661878249E+02  0.66526367214E+01  0.26927610018E+01  0.17197650773E+03  0.17120000000E+03 0.  0.
        998    1    1    2    0    0  0.10243641283E+00 -0.39411515877E+01  0.14381872426E+04  0.14382274118E+04  0.10000000000E+02 0. -1.
</event>
<event>
 5    1  0.9130022E-009  0.3787303E+03  0.7957747E-01  0.3456706E+00
         13   -1    0    0    0    0  0.00000000000E+00  0.00000000000E+00  0.14999999963E+04  0.15000000000E+04  0.10566000000E+00 0.  1.
        994   -1    0    0    0    0 -0.00000000000E+00 -0.00000000000E+00  0.11368683772E-12  0.17120000000E+03  0.17120000000E+03 0.  0.
         13    1    1    2    0    0 -0.13882662139E+02 -0.27525301248E+02  0.96462958387E+02  0.10126936369E+03  0.10566000000E+00 0.  1.
        994    1    1    2    0    0  0.22307493867E+02  0.13243033562E+02  0.70380077557E+01  0.17329736228E+03  0.17120000000E+03 0.  0.
        998    1    1    2    0    0 -0.84248317282E+01  0.14282267686E+02  0.13964990301E+04  0.13966332740E+04  0.10000000000E+02 0.  1.
</event>
<event>
 5    1  0.9130022E-009  0.3754801E+03  0.7957747E-01  0.3471078E+00
         13   -1    0    0    0    0  0.00000000000E+00  0.00000000000E+00  0.14999999963E+04  0.15000000000E+04  0.10566000000E+00 0. -1.
        994   -1    0    0    0    0 -0.00000000000E+00 -0.00000000000E+00  0.11368683772E-12  0.17120000000E+03  0.17120000000E+03 0.  0.
         13    1    1    2    0    0 -0.12267055503E+03 -0.47104736659E+02  0.62857735336E+03  0.64216541608E+03  0.10566000000E+00 0. -1.
        994    1    1    2    0    0  0.13172395155E+03  0.54707338165E+02  0.78939280657E+02  0.23639996255E+03  0.17120000000E+03 0.  0.
        998    1    1    2    0    0 -0.90533965211E+01 -0.76026015061E+01  0.79248336227E+03  0.79263462138E+03  0.10000000000E+02 0.  0.
</event>
<event>
 5    1  0.9130022E-009  0.3794147E+03  0.7957747E-01  0.3453711E+00
         13   -1    0    0    0    0  0.00000000000E+00  0.00000000000E+00  0.14999999963E+04  0.15000000000E+04  0.10566000000E+00 0. -1.
        994   -1    0    0    0    0 -0.00000000000E+00 -0.00000000000E+00  0.11368683772E-12  0.17120000000E+03  0.17120000000E+03 0.  0.
         13    1    1    2    0    0 -0.28252421675E+02 -0.24246144926E+02  0.14090237163E+03  0.14573799906E+03  0.10566000000E+00 0. -1.
        994    1    1    2    0    0  0.32688874475E+02  0.20562697784E+02  0.94403490733E+01  0.17575536192E+03  0.17120000000E+03 0.  0.
        998    1    1    2    0    0 -0.44364528002E+01  0.36834471418E+01  0.13496572756E+04  0.13497066390E+04  0.10000000000E+02 0. -1.
</event>
<event>
 5    1  0.9130022E-009  0.3782660E+03  0.7957747E-01  0.3458744E+00
         13   -1    0    0    0    0  0.00000000000E+00  0.00000000000E+00  0.14999999963E+04  0.15000000000E+04  0.10566000000E+00 0. -1.
        994   -1    0    0    0    0 -0.00000000000E+00 -0.00000000000E+00  0.11368683772E-12  0.17120000000E+03  0.17120000000E+03 0.  0.
         13    1    1    2    0    0  0.78263111642E+02 -0.48759418053E+02  0.53492837276E+03  0.54281762189E+03  0.10566000000E+00 0. -1.
        994    1    1    2    0    0 -0.76330203841E+02  0.52524824059E+02  0.34441227368E+02  0.19768863221E+03  0.17120000000E+03 0.  0.
        998    1    1    2    0    0 -0.19329078013E+01 -0.37654060061E+01  0.93063039616E+03  0.93069374590E+03  0.10000000000E+02 0.  0.
</event>
<event>
 5    1  0.9130022E-009  0.3755851E+03  0.7957747E-01  0.3470610E+00
         13   -1    0    0    0    0  0.00000000000E+00  0.00000000000E+00  0.14999999963E+04  0.15000000000E+04  0.10566000000E+00 0.  1.
        994   -1    0    0    0    0 -0.00000000000E+00 -0.00000000000E+00  0.11368683772E-12  0.17120000000E+03  0.17120000000E+03 0.  0.
         13    1    1    2    0    0 -0.13909990173E+01 -0.24081735072E+02  0.42239674518E+02  0.48642225584E+02  0.10566000000E+00 0.  1.
        994    1    1    2    0    0  0.26930842089E+01  0.22501250639E+02  0.81227768166E+01  0.17288429219E+03  0.17120000000E+03 0.  0.
        998    1    1    2    0    0 -0.13020851916E+01  0.15804844330E+01  0.14496375449E+04  0.14496734822E+04  0.10000000000E+02 0.  1.
</event>
<event>
 5    1  0.9130022E-009  0.3754270E+03  0.7957747E-01  0.3471315E+00
         13   -1    0    0    0    0  0.00000000000E+00  0.00000000000E+00  0.14999999963E+04  0.15000000000E+04  0.10566000000E+00 0.  1.
        994   -1    0    0    0    0 -0.00000000000E+00 -0.00000000000E+00  0.11368683772E-12  0.17120000000E+03  0.17120000000E+03 0.  0.
         13    1    1    2    0    0 -0.20307135310E+02 -0.23374422166E+02  0.75409789743E+02  0.81519267104E+02  0.10566000000E+00 0.  1.
        994    1    1    2    0    0  0.21648519410E+02 -0.98288122686E+01  0.83806383408E+01  0.17304606046E+03  0.17120000000E+03 0.  0.
        998    1    1    2    0    0 -0.13413840997E+01  0.33203234434E+02  0.14162095682E+04  0.14166346724E+04  0.10000000000E+02 0.  1.
</event>
<event>
 5    1  0.9130022E-009  0.3780540E+03  0.7957747E-01  0.3459676E+00
         13   -1    0    0    0    0  0.00000000000E+00  0.00000000000E+00  0.14999999963E+04  0.15000000000E+04  0.10566000000E+00 0. -1.
        994   -1    0    0    0    0 -0.00000000000E+00 -0.00000000000E+00  0.11368683772E-12  0.17120000000E+03  0.17120000000E+03 0.  0.
         13    1    1    2    0    0  0.39371738971E+02  0.16047004190E+02  0.18486553103E+03  0.18969163371E+03  0.10566000000E+00 0. -1.
        994    1    1    2    0    0 -0.13537726911E+02 -0.94112521246E+01  0.60338877182E+01  0.17209790678E+03  0.17120000000E+03 0.  0.
        998    1    1    2    0    0 -0.25834012060E+02 -0.66357520657E+01  0.13091005775E+04  0.13094104595E+04  0.10000000000E+02 0. -1.
</event>
<event>
 5    1  0.9130022E-009  0.3743834E+03  0.7957747E-01  0.3475985E+00
         13   -1    0    0    0    0  0.00000000000E+00  0.00000000000E+00  0.14999999963E+04  0.15000000000E+04  0.10566000000E+00 0.  1.
        994   -1    0    0    0    0 -0.00000000000E+00 -0.00000000000E+00  0.11368683772E-12  0.17120000000E+03  0.17120000000E+03 0.  0.
         13    1    1    2    0    0  0.46586381863E+01 -0.29035112749E+02  0.68451620359E+02  0.74500846813E+02  0.10566000000E+00 0.  1.
        994    1    1    2    0    0  0.17520435938E+01 -0.22450869485E+02  0.87249855771E+01  0.17289498712E+03  0.17120000000E+03 0.  0.
        998    1    1    2    0    0 -0.64106817801E+01  0.51485982234E+02  0.14228233903E+04  0.14238041661E+04  0.10000000000E+02 0.  1.
</event>
<event>
 5    1  0.1108901E-008  0.3857123E+03  0.7957747E-01  0.3426657E+00
         13   -1    0    0    0    0  0.00000000000E+00  0.00000000000E+00  0.14999999963E+04  0.15000000000E+04  0.10566000000E+00 0. -1.
        994   -1    0    0    0    0 -0.00000000000E+00 -0.00000000000E+00  0.11368683772E-12  0.17120000000E+03  0.17120000000E+03 0.  0.
         13    1    1    2    0    0  0.10981157943E+02 -0.12130896384E+01  0.46966221968E+02  0.48248259930E+02  0.10566000000E+00 0. -1.
        994    1    1    2    0    0 -0.11613495920E+02 -0.41245480507E+00  0.17201038408E+01  0.17160257039E+03  0.17120000000E+03 0.  0.
        998    1    1    2    0    0  0.63233797674E+00  0.16255444435E+01  0.14513136705E+04  0.14513491697E+04  0.10000000000E+02 0. -1.
</event>
<event>
 5    1  0.9130022E-009  0.3850547E+03  0.7957747E-01  0.3429440E+00
         13   -1    0    0    0    0  0.00000000000E+00  0.00000000000E+00  0.14999999963E+04  0.15000000000E+04  0.10566000000E+00 0.  1.
        994   -1    0    0    0    0 -0.00000000000E+00 -0.00000000000E+00  0.11368683772E-12  0.17120000000E+03  0.17120000000E+03 0.  0.
         13    1    1    2    0    0 -0.10099070363E+02 -0.69989684052E+01  0.46342762790E+02  0.47944130068E+02  0.10566000000E+00 0.  1.
        994    1    1    2    0    0  0.86567276037E+01  0.68475567555E+01  0.20036685056E+01  0.17156713745E+03  0.17120000000E+03 0.  0.
        998    1    1    2    0    0  0.14423427597E+01  0.15141164963E+00  0.14516535650E+04  0.14516887325E+04  0.10000000000E+02 0.  1.
</event>
<event>
 5    1  0.9130022E-009  0.3763763E+03  0.7957747E-01  0.3467090E+00
         13   -1    0    0    0    0  0.00000000000E+00  0.00000000000E+00  0.14999999963E+04  0.15000000000E+04  0.10566000000E+00 0.  1.
        994   -1    0    0    0    0 -0.00000000000E+00 -0.00000000000E+00  0.11368683772E-12  0.17120000000E+03  0.17120000000E+03 0.  0.
         13    1    1    2    0    0  0.38145338079E+02  0.63432014758E+02  0.33671025516E+03  0.34474990125E+03  0.10566000000E+00 0.  1.
        994    1    1    2    0    0 -0.46962223101E+02 -0.64731265875E+02  0.27929321725E+02  0.19101066513E+03  0.17120000000E+03 0.  0.
        998    1    1    2    0    0  0.88168850221E+01  0.12992511164E+01  0.11353604194E+04  0.11354394336E+04  0.10000000000E+02 0.  0.
</event>
<event>
 5    1  0.9130022E-009  0.3853660E+03  0.7957747E-01  0.3428121E+00
         13   -1    0    0    0    0  0.00000000000E+00  0.00000000000E+00  0.14999999963E+04  0.15000000000E+04  0.10566000000E+00 0.  1.
        994   -1    0    0    0    0 -0.00000000000E+00 -0.00000000000E+00  0.11368683772E-12  0.17120000000E+03  0.17120000000E+03 0.  0.
         13    1    1    2    0    0  0.60528684980E+02  0.78275349513E+02  0.24361041029E+03  0.26293876704E+03  0.10566000000E+00 0.  1.
        994    1    1    2    0    0 -0.10970109192E+02 -0.74229949846E+02  0.40430193755E+02  0.19124452755E+03  0.17120000000E+03 0.  0.
        998    1    1    2    0    0 -0.49558575788E+02 -0.40453996668E+01  0.12159593922E+04  0.12170167054E+04  0.10000000000E+02 0.  1.
</event>
<event>
 5    1  0.1192432E-008  0.3863225E+03  0.7957747E-01  0.3424083E+00
         13   -1    0    0    0    0  0.00000000000E+00  0.00000000000E+00  0.14999999963E+04  0.15000000000E+04  0.10566000000E+00 0.  1.
        994   -1    0    0    0    0 -0.00000000000E+00 -0.00000000000E+00  0.11368683772E-12  0.17120000000E+03  0.17120000000E+03 0.  0.
         13    1    1    2    0    0 -0.67810123445E+01  0.11430669331E+02  0.79248673733E+02  0.80355496279E+02  0.10566000000E+00 0.  1.
        994    1    1    2    0    0  0.23571640647E+02 -0.16536067348E+02  0.36945223206E+01  0.17364375388E+03  0.17120000000E+03 0.  0.
        998    1    1    2    0    0 -0.16790628303E+02  0.51053980164E+01  0.14170568002E+04  0.14172007498E+04  0.10000000000E+02 0.  1.
</event>
<event>
 5    1  0.9130022E-009  0.3725800E+03  0.7957747E-01  0.3484117E+00
         13   -1    0    0    0    0  0.00000000000E+00  0.00000000000E+00  0.14999999963E+04  0.15000000000E+04  0.10566000000E+00 0.  1.
        994   -1    0    0    0    0 -0.00000000000E+00 -0.00000000000E+00  0.11368683772E-12  0.17120000000E+03  0.17120000000E+03 0.  0.
         13    1    1    2    0    0 -0.94324057488E+01  0.30040913339E+02  0.63123261498E+02  0.70540655360E+02  0.10566000000E+00 0.  1.
        994    1    1    2    0    0 -0.93547234370E+01 -0.55954918451E+01  0.83340299539E+01  0.17174899253E+03  0.17120000000E+03 0.  0.
        998    1    1    2    0    0  0.18787129186E+02 -0.24445421494E+02  0.14285427048E+04  0.14289103521E+04  0.10000000000E+02 0.  1.
</event>
<event>
 5    1  0.9130022E-009  0.3817418E+03  0.7957747E-01  0.3443609E+00
         13   -1    0    0    0    0  0.00000000000E+00  0.00000000000E+00  0.14999999963E+04  0.15000000000E+04  0.10566000000E+00 0.  1.
        994   -1    0    0    0    0 -0.00000000000E+00 -0.00000000000E+00  0.11368683772E-12  0.17120000000E+03  0.17120000000E+03 0.  0.
         13    1    1    2    0    0 -0.15671929692E+02  0.12887824806E+02  0.65387252257E+02  0.68463196904E+02  0.10566000000E+00 0.  1.
        994    1    1    2    0    0  0.53737095022E+01  0.32547668452E+01  0.33876797770E+01  0.17134872814E+03  0.17120000000E+03 0.  0.
        998    1    1    2    0    0  0.10298220190E+02 -0.16142591651E+02  0.14312250642E+04  0.14313880750E+04  0.10000000000E+02 0.  1.
</event>
<event>
 5    1  0.9130022E-009  0.3911815E+03  0.7957747E-01  0.3403871E+00
         13   -1    0    0    0    0  0.00000000000E+00  0.00000000000E+00  0.14999999963E+04  0.15000000000E+04  0.10566000000E+00 0.  1.
        994   -1    0    0    0    0 -0.00000000000E+00 -0.00000000000E+00  0.11368683772E-12  0.17120000000E+03  0.17120000000E+03 0.  0.
         13    1    1    2    0    0 -0.38971045708E+02  0.88718061949E+02  0.18336739186E+03  0.20739635600E+03  0.10566000000E+00 0.  1.
        994    1    1    2    0    0 -0.17678388347E+02 -0.10225078848E+03  0.64571819916E+02  0.21034901732E+03  0.17120000000E+03 0.  0.
        998    1    1    2    0    0  0.56649434055E+02  0.13532726531E+02  0.12520607845E+04  0.12534546267E+04  0.10000000000E+02 0.  1.
</event>
<event>
 5    1  0.9130022E-009  0.3856255E+03  0.7957747E-01  0.3427024E+00
         13   -1    0    0    0    0  0.00000000000E+00  0.00000000000E+00  0.14999999963E+04  0.15000000000E+04  0.10566000000E+00 0.  1.
        994   -1    0    0    0    0 -0.00000000000E+00 -0.00000000000E+00  0.11368683772E-12  0.17120000000E+03  0.17120000000E+03 0.  0.
         13    1    1    2    0    0  0.11809127546E+02 -0.62773339336E+01  0.63553443345E+02  0.64945452033E+02  0.10566000000E+00 0.  1.
        994    1    1    2    0    0 -0.14640477419E+02  0.13398125115E+02  0.26136031602E+01  0.17236625034E+03  0.17120000000E+03 0.  0.
        998    1    1    2    0    0  0.28313498738E+01 -0.71207911811E+01  0.14338329498E+04  0.14338882976E+04  0.10000000000E+02 0.  1.
</event>
<event>
 5    1  0.9130022E-009  0.3831470E+03  0.7957747E-01  0.3437569E+00
         13   -1    0    0    0    0  0.00000000000E+00  0.00000000000E+00  0.14999999963E+04  0.15000000000E+04  0.10566000000E+00 0. -1.
        994   -1    0    0    0    0 -0.00000000000E+00 -0.00000000000E+00  0.11368683772E-12  0.17120000000E+03  0.17120000000E+03 0.  0.
         13    1    1    2    0    0  0.19926303503E+01 -0.13948795185E+02  0.37735831331E+02  0.40280809241E+02  0.10566000000E+00 0. -1.
        994    1    1    2    0    0  0.66996897075E+01  0.12897255671E+02  0.32520771648E+01  0.17184656253E+03  0.17120000000E+03 0.  0.
        998    1    1    2    0    0 -0.86923200578E+01  0.10515395146E+01  0.14590120878E+04  0.14590726282E+04  0.10000000000E+02 0. -1.
</event>
<event>
 5    1  0.9130022E-009  0.3825809E+03  0.7957747E-01  0.3439997E+00
         13   -1    0    0    0    0  0.00000000000E+00  0.00000000000E+00  0.14999999963E+04  0.15000000000E+04  0.10566000000E+00 0.  1.
        994   -1    0    0    0    0 -0.00000000000E+00 -0.00000000000E+00  0.11368683772E-12  0.17120000000E+03  0.17120000000E+03 0.  0.
         13    1    1    2    0    0  0.10897595512E+02  0.22748560638E+02  0.12917281168E+03  0.13161261733E+03  0.10566000000E+00 0.  1.
        994    1    1    2    0    0  0.11815622824E+02  0.34720701693E+00  0.32992654975E+01  0.17163931557E+03  0.17120000000E+03 0.  0.
        998    1    1    2    0    0 -0.22713218336E+02 -0.23095767655E+02  0.13675279191E+04  0.13679480671E+04  0.10000000000E+02 0.  1.
</event>
<event>
 5    1  0.9130022E-009  0.3796551E+03  0.7957747E-01  0.3452662E+00
         13   -1    0    0    0    0  0.00000000000E+00  0.00000000000E+00  0.14999999963E+04  0.15000000000E+04  0.10566000000E+00 0. -1.
        994   -1    0    0    0    0 -0.00000000000E+00 -0.00000000000E+00  0.11368683772E-12  0.17120000000E+03  0.17120000000E+03 0.  0.
         13    1    1    2    0    0  0.22907970801E+00 -0.10361177810E+02  0.10037475553E+02  0.14428047776E+02  0.10566000000E+00 0. -1.
        994    1    1    2    0    0  0.45144834461E+01  0.28994914202E+02  0.71945358147E+01  0.17384558365E+03  0.17120000000E+03 0.  0.
        998    1    1    2    0    0 -0.47435631541E+01 -0.18633736392E+02  0.14827679849E+04  0.14829263686E+04  0.10000000000E+02 0. -1.
</event>
<event>
 5    1  0.9130022E-009  0.3721681E+03  0.7957747E-01  0.3485986E+00
         13   -1    0    0    0    0  0.00000000000E+00  0.00000000000E+00  0.14999999963E+04  0.15000000000E+04  0.10566000000E+00 0.  1.
        994   -1    0    0    0    0 -0.00000000000E+00 -0.00000000000E+00  0.11368683772E-12  0.17120000000E+03  0.17120000000E+03 0.  0.
         13    1    1    2    0    0  0.11165935219E+01  0.16132486075E+02  0.54347970722E+01  0.17060248278E+02  0.10566000000E+00 0.  1.
        994    1    1    2    0    0 -0.12498608057E+02 -0.64133041916E+01  0.12785320255E+02  0.17225054452E+03  0.17120000000E+03 0.  0.
        998    1    1    2    0    0  0.11382014535E+02 -0.97191818836E+01  0.14817798790E+04  0.14818892072E+04  0.10000000000E+02 0.  1.
</event>
<event>
 5    1  0.9130022E-009  0.3761637E+03  0.7957747E-01  0.3468035E+00
         13   -1    0    0    0    0  0.00000000000E+00  0.00000000000E+00  0.14999999963E+04  0.15000000000E+04  0.10566000000E+00 0. -1.
        994   -1    0    0    0    0 -0.00000000000E+00 -0.00000000000E+00  0.11368683772E-12  0.17120000000E+03  0.17120000000E+03 0.  0.
         13    1    1    2    0    0 -0.92811774503E+01  0.54950281759E+01  0.68010048642E+01  0.12751487000E+02  0.10566000000E+00 0. -1.
        994    1    1    2    0    0  0.21899876665E+01 -0.92671463628E+01  0.63894282139E+01  0.17158362638E+03  0.17120000000E+03 0.  0.
        998    1    1    2    0    0  0.70911897838E+01  0.37721181870E+01  0.14868095632E+04  0.14868648866E+04  0.10000000000E+02 0. -1.
</event>
<event>
 5    1  0.9130022E-009  0.3810228E+03  0.7957747E-01  0.3446717E+00
         13   -1    0    0    0    0  0.00000000000E+00  0.00000000000E+00  0.14999999963E+04  0.15000000000E+04  0.10566000000E+00 0.  1.
        994   -1    0    0    0    0 -0.00000000000E+00 -0.00000000000E+00  0.11368683772E-12  0.17120000000E+03  0.17120000000E+03 0.  0.
         13    1    1    2    0    0 -0.84313310260E+01  0.10589195861E+02  0.23840041110E+02  0.27414907186E+02  0.10566000000E+00 0.  1.
        994    1    1    2    0    0  0.44065260236E+01 -0.91890941240E+01  0.39638451808E+01  0.17154885307E+03  0.17120000000E+03 0.  0.
        998    1    1    2    0    0  0.40248050024E+01 -0.14001017372E+01  0.14721961100E+04  0.14722362397E+04  0.10000000000E+02 0.  1.
</event>
<event>
 5    1  0.9130022E-009  0.3830935E+03  0.7957747E-01  0.3437798E+00
         13   -1    0    0    0    0  0.00000000000E+00  0.00000000000E+00  0.14999999963E+04  0.15000000000E+04  0.10566000000E+00 0. -1.
        994   -1    0    0    0    0 -0.00000000000E+00 -0.00000000000E+00  0.11368683772E-12  0.17120000000E+03  0.17120000000E+03 0.  0.
         13    1    1    2    0    0  0.88489829717E+00 -0.11544634141E+02 -0.46039884601E+01  0.12460718126E+02  0.10566000000E+00 0. -1.
        994    1    1    2    0    0 -0.22653250085E+02  0.25641886774E+01  0.19944112095E+02  0.17385900152E+03  0.17120000000E+03 0.  0.
        998    1    1    2    0    0  0.21768351788E+02  0.89804454634E+01  0.14846598726E+04  0.14848802804E+04  0.10000000000E+02 0. -1.
</event>
<event>
 5    1  0.9130022E-009  0.3696751E+03  0.7957747E-01  0.3497386E+00
         13   -1    0    0    0    0  0.00000000000E+00  0.00000000000E+00  0.14999999963E+04  0.15000000000E+04  0.10566000000E+00 0. -1.
        994   -1    0    0    0    0 -0.00000000000E+00 -0.00000000000E+00  0.11368683772E-12  0.17120000000E+03  0.17120000000E+03 0.  0.
         13    1    1    2    0    0 -0.73672629728E+01  0.50437744031E+02  0.13818409025E+03  0.14728576492E+03  0.10566000000E+00 0. -1.
        994    1    1    2    0    0 -0.14828899061E+02 -0.27236197548E+02  0.12775230225E+02  0.17445444452E+03  0.17120000000E+03 0.  0.
        998    1    1    2    0    0  0.22196162034E+02 -0.23201546483E+02  0.13490406758E+04  0.13494597906E+04  0.10000000000E+02 0. -1.
</event>
<event>
 5    1  0.1557680E-008  0.3860705E+03  0.7957747E-01  0.3425145E+00
         13   -1    0    0    0    0  0.00000000000E+00  0.00000000000E+00  0.14999999963E+04  0.15000000000E+04  0.10566000000E+00 0. -1.
        994   -1    0    0    0    0 -0.00000000000E+00 -0.00000000000E+00  0.11368683772E-12  0.17120000000E+03  0.17120000000E+03 0.  0.
         13    1    1    2    0    0 -0.10665239635E+01 -0.10940404341E+02  0.53676269801E+02  0.54790355212E+02  0.10566000000E+00 0. -1.
        994    1    1    2    0    0  0.41107214350E+01  0.12297171465E+02  0.16507693587E+01  0.17169823382E+03  0.17120000000E+03 0.  0.
        998    1    1    2    0    0 -0.30441974715E+01 -0.13567671244E+01  0.14446729571E+04  0.14447114110E+04  0.10000000000E+02 0. -1.
</event>
<event>
 5    1  0.9130022E-009  0.3824641E+03  0.7957747E-01  0.3440499E+00
         13   -1    0    0    0    0  0.00000000000E+00  0.00000000000E+00  0.14999999963E+04  0.15000000000E+04  0.10566000000E+00 0.  1.
        994   -1    0    0    0    0 -0.00000000000E+00 -0.00000000000E+00  0.11368683772E-12  0.17120000000E+03  0.17120000000E+03 0.  0.
         13    1    1    2    0    0 -0.55562935135E+02  0.85674756041E+02  0.40969935509E+03  0.42223331975E+03  0.10566000000E+00 0.  1.
        994    1    1    2    0    0 -0.38004977481E+02 -0.36535587044E+02  0.27920717128E+02  0.18129598418E+03  0.17120000000E+03 0.  0.
        998    1    1    2    0    0  0.93567912616E+02 -0.49139168997E+02  0.10623799241E+04  0.10676706961E+04  0.10000000000E+02 0.  1.
</event>
<event>
 5    1  0.9130022E-009  0.3810279E+03  0.7957747E-01  0.3446695E+00
         13   -1    0    0    0    0  0.00000000000E+00  0.00000000000E+00  0.14999999963E+04  0.15000000000E+04  0.10566000000E+00 0.  1.
        994   -1    0    0    0    0 -0.00000000000E+00 -0.00000000000E+00  0.11368683772E-12  0.17120000000E+03  0.17120000000E+03 0.  0.
         13    1    1    2    0    0  0.44431049758E+02  0.34984279786E+00  0.26101039455E+03  0.26476532590E+03  0.10566000000E+00 0.  1.
        994    1    1    2    0    0 -0.29895100675E+02 -0.73448845780E+01  0.67788209576E+01  0.17407773203E+03  0.17120000000E+03 0.  0.
        998    1    1    2    0    0 -0.14535949083E+02  0.69950417802E+01  0.12322107808E+04  0.12323569421E+04  0.10000000000E+02 0.  1.
</event>
<event>
 5    1  0.1353559E-008  0.3860294E+03  0.7957747E-01  0.3425318E+00
         13   -1    0    0    0    0  0.00000000000E+00  0.00000000000E+00  0.14999999963E+04  0.15000000000E+04  0.10566000000E+00 0.  1.
        994   -1    0    0    0    0 -0.00000000000E+00 -0.00000000000E+00  0.11368683772E-12  0.17120000000E+03  0.17120000000E+03 0.  0.
         13    1    1    2    0    0  0.10505773597E+02 -0.51082063906E+01  0.62056816179E+02  0.63146849880E+02  0.10566000000E+00 0.  1.
        994    1    1    2    0    0 -0.40622005557E+01  0.76707919268E+01  0.13669216071E+01  0.17142535109E+03  0.17120000000E+03 0.  0.
        998    1    1    2    0    0 -0.64435730417E+01 -0.25625855362E+01  0.14365762585E+04  0.14366277990E+04  0.10000000000E+02 0.  1.
</event>
<event>
 5    1  0.9130022E-009  0.3796482E+03  0.7957747E-01  0.3452692E+00
         13   -1    0    0    0    0  0.00000000000E+00  0.00000000000E+00  0.14999999963E+04  0.15000000000E+04  0.10566000000E+00 0. -1.
        994   -1    0    0    0    0 -0.00000000000E+00 -0.00000000000E+00  0.11368683772E-12  0.17120000000E+03  0.17120000000E+03 0.  0.
         13    1    1    2    0    0  0.31930544024E+02 -0.23190005877E+02  0.20927313244E+03  0.21296147807E+03  0.10566000000E+00 0. -1.
        994    1    1    2    0    0 -0.77449814237E+01 -0.62002367820E+01  0.46403026727E+01  0.17154999295E+03  0.17120000000E+03 0.  0.
        998    1    1    2    0    0 -0.24185562600E+02  0.29390242659E+02  0.12860865612E+04  0.12866885290E+04  0.10000000000E+02 0. -1.
</event>
<event>
 5    1  0.9130022E-009  0.3765390E+03  0.7957747E-01  0.3466368E+00
         13   -1    0    0    0    0  0.00000000000E+00  0.00000000000E+00  0.14999999963E+04  0.15000000000E+04  0.10566000000E+00 0. -1.
        994   -1    0    0    0    0 -0.00000000000E+00 -0.00000000000E+00  0.11368683772E-12  0.17120000000E+03  0.17120000000E+03 0.  0.
         13    1    1    2    0    0 -0.82696427436E+02 -0.52517488102E+02  0.26735364894E+03  0.28473631738E+03  0.10566000000E+00 0. -1.
        994    1    1    2    0    0  0.80127060234E+02  0.56298133130E+02  0.49605194347E+02  0.20337143576E+03  0.17120000000E+03 0.  0.
        998    1    1    2    0    0  0.25693672022E+01 -0.37806450278E+01  0.11830411530E+04  0.11830922469E+04  0.10000000000E+02 0. -1.
</event>
<event>
 5    1  0.9130022E-009  0.3845572E+03  0.7957747E-01  0.3431552E+00
         13   -1    0    0    0    0  0.00000000000E+00  0.00000000000E+00  0.14999999963E+04  0.15000000000E+04  0.10566000000E+00 0.  1.
        994   -1    0    0    0    0 -0.00000000000E+00 -0.00000000000E+00  0.11368683772E-12  0.17120000000E+03  0.17120000000E+03 0.  0.
         13    1    1    2    0    0  0.94807208588E+01  0.12146773392E+02  0.63499451581E+02  0.65342326917E+02  0.10566000000E+00 0.  1.
        994    1    1    2    0    0  0.93551661819E+01 -0.22280814725E+02  0.37756970604E+01  0.17293828300E+03  0.17120000000E+03 0.  0.
        998    1    1    2    0    0 -0.18835887041E+02  0.10134041333E+02  0.14327248476E+04  0.14329193901E+04  0.10000000000E+02 0.  1.
</event>
<event>
 5    1  0.9130022E-009  0.3848104E+03  0.7957747E-01  0.3430477E+00
         13   -1    0    0    0    0  0.00000000000E+00  0.00000000000E+00  0.14999999963E+04  0.15000000000E+04  0.10566000000E+00 0. -1.
        994   -1    0    0    0    0 -0.00000000000E+00 -0.00000000000E+00  0.11368683772E-12  0.17120000000E+03  0.17120000000E+03 0.  0.
         13    1    1    2    0    0 -0.11540280475E+02 -0.51674065534E+01  0.45422592183E+02  0.47149795425E+02  0.10566000000E+00 0. -1.
        994    1    1    2    0    0  0.89857100258E+01  0.86461220080E+01  0.22361453704E+01  0.17166810640E+03  0.17120000000E+03 0.  0.
        998    1    1    2    0    0  0.25545704488E+01 -0.34787154546E+01  0.14523412587E+04  0.14523820982E+04  0.10000000000E+02 0. -1.
</event>
<event>
 5    1  0.9130022E-009  0.3776406E+03  0.7957747E-01  0.3461497E+00
         13   -1    0    0    0    0  0.00000000000E+00  0.00000000000E+00  0.14999999963E+04  0.15000000000E+04  0.10566000000E+00 0. -1.
        994   -1    0    0    0    0 -0.00000000000E+00 -0.00000000000E+00  0.11368683772E-12  0.17120000000E+03  0.17120000000E+03 0.  0.
         13    1    1    2    0    0 -0.11206458048E+02  0.28968581160E+02  0.25293747036E+02  0.40056812149E+02  0.10566000000E+00 0. -1.
        994    1    1    2    0    0  0.19247616416E+02 -0.28731006844E+02  0.19345677391E+02  0.17572602746E+03  0.17120000000E+03 0.  0.
        998    1    1    2    0    0 -0.80411583683E+01 -0.23757431617E+00  0.14553605719E+04  0.14554171604E+04  0.10000000000E+02 0. -1.
</event>
<event>
 5    1  0.9130022E-009  0.3834924E+03  0.7957747E-01  0.3436092E+00
         13   -1    0    0    0    0  0.00000000000E+00  0.00000000000E+00  0.14999999963E+04  0.15000000000E+04  0.10566000000E+00 0.  1.
        994   -1    0    0    0    0 -0.00000000000E+00 -0.00000000000E+00  0.11368683772E-12  0.17120000000E+03  0.17120000000E+03 0.  0.
         13    1    1    2    0    0 -0.20681575925E+02  0.15207217545E+01  0.98945552549E+02  0.10109536938E+03  0.10566000000E+00 0.  1.
        994    1    1    2    0    0 -0.22361197463E+01 -0.93626685128E+01  0.26867873768E+01  0.17149145349E+03  0.17120000000E+03 0.  0.
        998    1    1    2    0    0  0.22917695671E+02  0.78419467583E+01  0.13983676564E+04  0.13986131771E+04  0.10000000000E+02 0.  1.
</event>
<event>
 5    1  0.9130022E-009  0.3786902E+03  0.7957747E-01  0.3456881E+00
         13   -1    0    0    0    0  0.00000000000E+00  0.00000000000E+00  0.14999999963E+04  0.15000000000E+04  0.10566000000E+00 0.  1.
        994   -1    0    0    0    0 -0.00000000000E+00 -0.00000000000E+00  0.11368683772E-12  0.17120000000E+03  0.17120000000E+03 0.  0.
         13    1    1    2    0    0 -0.55004460804E+02  0.29808548979E+02  0.24825569687E+03  0.25601746521E+03  0.10566000000E+00 0.  1.
        994    1    1    2    0    0  0.97390195274E+02 -0.37579540838E+02  0.42299106106E+02  0.20492858854E+03  0.17120000000E+03 0.  0.
        998    1    1    2    0    0 -0.42385734470E+02  0.77709918596E+01  0.12094451933E+04  0.12102539462E+04  0.10000000000E+02 0.  1.
</event>
<event>
 5    1  0.9130022E-009  0.3841139E+03  0.7957747E-01  0.3433439E+00
         13   -1    0    0    0    0  0.00000000000E+00  0.00000000000E+00  0.14999999963E+04  0.15000000000E+04  0.10566000000E+00 0.  1.
        994   -1    0    0    0    0 -0.00000000000E+00 -0.00000000000E+00  0.11368683772E-12  0.17120000000E+03  0.17120000000E+03 0.  0.
         13    1    1    2    0    0 -0.91122302468E+01  0.11615688435E+02  0.58257804255E+02  0.60099416624E+02  0.10566000000E+00 0.  1.
        994    1    1    2    0    0 -0.95706235180E+01  0.55026759231E+01  0.24727837052E+01  0.17157339810E+03  0.17120000000E+03 0.  0.
        998    1    1    2    0    0  0.18682853765E+02 -0.17118364358E+02  0.14392694083E+04  0.14395271853E+04  0.10000000000E+02 0.  1.
</event>
<event>
 5    1  0.9130022E-009  0.3787958E+03  0.7957747E-01  0.3456419E+00
         13   -1    0    0    0    0  0.00000000000E+00  0.00000000000E+00  0.14999999963E+04  0.15000000000E+04  0.10566000000E+00 0.  1.
        994   -1    0    0    0    0 -0.00000000000E+00 -0.00000000000E+00  0.11368683772E-12  0.17120000000E+03  0.17120000000E+03 0.  0.
         13    1    1    2    0    0  0.87927129637E+01  0.11099064019E+02  0.18862816861E+02  0.23586395387E+02  0.10566000000E+00 0.  1.
        994    1    1    2    0    0 -0.10851340228E+02 -0.11020849289E+02  0.55455352251E+01  0.17198663804E+03  0.17120000000E+03 0.  0.
        998    1    1    2    0    0  0.20586272640E+01 -0.78214730066E-01  0.14755916442E+04  0.14756269666E+04  0.10000000000E+02 0.  1.
</event>
<event>
 5    1  0.9130022E-009  0.3821159E+03  0.7957747E-01  0.3441997E+00
         13   -1    0    0    0    0  0.00000000000E+00  0.00000000000E+00  0.14999999963E+04  0.15000000000E+04  0.10566000000E+00 0.  1.
        994   -1    0    0    0    0 -0.00000000000E+00 -0.00000000000E+00  0.11368683772E-12  0.17120000000E+03  0.17120000000E+03 0.  0.
         13    1    1    2    0    0  0.31361762719E+02 -0.37689379173E+02  0.29438791999E+03  0.29844314042E+03  0.10566000000E+00 0.  1.
        994    1    1    2    0    0 -0.45840399293E+02  0.35284004925E+02  0.14258212769E+02  0.18127062598E+03  0.17120000000E+03 0.  0.
        998    1    1    2    0    0  0.14478636574E+02  0.24053742480E+01  0.11913538635E+04  0.11914862336E+04  0.10000000000E+02 0.  1.
</event>
<event>
 5    1  0.9130022E-009  0.3814322E+03  0.7957747E-01  0.3444946E+00
         13   -1    0    0    0    0  0.00000000000E+00  0.00000000000E+00  0.14999999963E+04  0.15000000000E+04  0.10566000000E+00 0.  1.
        994   -1    0    0    0    0 -0.00000000000E+00 -0.00000000000E+00  0.11368683772E-12  0.17120000000E+03  0.17120000000E+03 0.  0.
         13    1    1    2    0    0  0.34739302336E+01 -0.21069261426E+02  0.63522952753E+02  0.67016107458E+02  0.10566000000E+00 0.  1.
        994    1    1    2    0    0 -0.39237640073E+01  0.20619059809E+02  0.48790412441E+01  0.17255082322E+03  0.17120000000E+03 0.  0.
        998    1    1    2    0    0  0.44983377369E+00  0.45020161743E+00  0.14315980023E+04  0.14316330693E+04  0.10000000000E+02 0.  0.
</event>
<event>
 5    1  0.9130022E-009  0.3778661E+03  0.7957747E-01  0.3460503E+00
         13   -1    0    0    0    0  0.00000000000E+00  0.00000000000E+00  0.14999999963E+04  0.15000000000E+04  0.10566000000E+00 0.  1.
        994   -1    0    0    0    0 -0.00000000000E+00 -0.00000000000E+00  0.11368683772E-12  0.17120000000E+03  0.17120000000E+03 0.  0.
         13    1    1    2    0    0 -0.37332487178E+02  0.32846941034E+02  0.28253327653E+03  0.28687575646E+03  0.10566000000E+00 0.  1.
        994    1    1    2    0    0 -0.28642328899E+01 -0.13663711369E+02  0.58706707878E+01  0.17186857076E+03  0.17120000000E+03 0.  0.
        998    1    1    2    0    0  0.40196720068E+02 -0.19183229665E+02  0.12115960490E+04  0.12124556728E+04  0.10000000000E+02 0.  1.
</event>
<event>
 5    1  0.9130022E-009  0.3837284E+03  0.7957747E-01  0.3435083E+00
         13   -1    0    0    0    0  0.00000000000E+00  0.00000000000E+00  0.14999999963E+04  0.15000000000E+04  0.10566000000E+00 0.  1.
        994   -1    0    0    0    0 -0.00000000000E+00 -0.00000000000E+00  0.11368683772E-12  0.17120000000E+03  0.17120000000E+03 0.  0.
         13    1    1    2    0    0  0.10929717018E+02 -0.72034042275E+01  0.37233689773E+02  0.39467791485E+02  0.10566000000E+00 0.  1.
        994    1    1    2    0    0 -0.36888725779E+01  0.10556549526E+02  0.26758348085E+01  0.17158568883E+03  0.17120000000E+03 0.  0.
        998    1    1    2    0    0 -0.72408444406E+01 -0.33531452989E+01  0.14600904717E+04  0.14601465197E+04  0.10000000000E+02 0.  1.
</event>
<event>
 5    1  0.9130022E-009  0.3823040E+03  0.7957747E-01  0.3441187E+00
         13   -1    0    0    0    0  0.00000000000E+00  0.00000000000E+00  0.14999999963E+04  0.15000000000E+04  0.10566000000E+00 0.  1.
        994   -1    0    0    0    0 -0.00000000000E+00 -0.00000000000E+00  0.11368683772E-12  0.17120000000E+03  0.17120000000E+03 0.  0.
         13    1    1    2    0    0 -0.28988292973E+02 -0.26250804398E+01  0.13752344439E+03  0.14056998647E+03  0.10566000000E+00 0.  1.
        994    1    1    2    0    0  0.22101615999E+02 -0.55612926213E+01  0.46997415182E+01  0.17277423701E+03  0.17120000000E+03 0.  0.
        998    1    1    2    0    0  0.68866769738E+01  0.81863730611E+01  0.13577768104E+04  0.13578557765E+04  0.10000000000E+02 0.  1.
</event>
<event>
 5    1  0.9130022E-009  0.3729728E+03  0.7957747E-01  0.3482339E+00
         13   -1    0    0    0    0  0.00000000000E+00  0.00000000000E+00  0.14999999963E+04  0.15000000000E+04  0.10566000000E+00 0. -1.
        994   -1    0    0    0    0 -0.00000000000E+00 -0.00000000000E+00  0.11368683772E-12  0.17120000000E+03  0.17120000000E+03 0.  0.
         13    1    1    2    0    0  0.12871399874E+03  0.75595308414E+01  0.45632842824E+03  0.47419414332E+03  0.10566000000E+00 0. -1.
        994    1    1    2    0    0 -0.12444747131E+03 -0.92405559725E+01  0.69776692136E+02  0.22304884612E+03  0.17120000000E+03 0.  0.
        998    1    1    2    0    0 -0.42665274259E+01  0.16810251311E+01  0.97389487590E+03  0.97395701055E+03  0.10000000000E+02 0.  0.
</event>
<event>
 5    1  0.9130022E-009  0.3825825E+03  0.7957747E-01  0.3439990E+00
         13   -1    0    0    0    0  0.00000000000E+00  0.00000000000E+00  0.14999999963E+04  0.15000000000E+04  0.10566000000E+00 0. -1.
        994   -1    0    0    0    0 -0.00000000000E+00 -0.00000000000E+00  0.11368683772E-12  0.17120000000E+03  0.17120000000E+03 0.  0.
         13    1    1    2    0    0 -0.60239650535E+02 -0.52273359510E+02  0.39223976823E+03  0.40026661934E+03  0.10566000000E+00 0. -1.
        994    1    1    2    0    0  0.10762794466E+03  0.91371768625E+02  0.71984462692E+02  0.23328904269E+03  0.17120000000E+03 0.  0.
        998    1    1    2    0    0 -0.47388294120E+02 -0.39098409114E+02  0.10357757654E+04  0.10376443380E+04  0.10000000000E+02 0. -1.
</event>
<event>
 5    1  0.9130022E-009  0.3711822E+03  0.7957747E-01  0.3490475E+00
         13   -1    0    0    0    0  0.00000000000E+00  0.00000000000E+00  0.14999999963E+04  0.15000000000E+04  0.10566000000E+00 0. -1.
        994   -1    0    0    0    0 -0.00000000000E+00 -0.00000000000E+00  0.11368683772E-12  0.17120000000E+03  0.17120000000E+03 0.  0.
         13    1    1    2    0    0  0.60599538034E+01 -0.80130920613E+02  0.36159721993E+03  0.37041901693E+03  0.10566000000E+00 0. -1.
        994    1    1    2    0    0  0.29392967399E+02  0.11280820841E+02  0.15052827391E+02  0.17472043688E+03  0.17120000000E+03 0.  0.
        998    1    1    2    0    0 -0.35452921202E+02  0.68850099772E+02  0.11233499490E+04  0.11260605462E+04  0.10000000000E+02 0. -1.
</event>
<event>
 5    1  0.9130022E-009  0.3774837E+03  0.7957747E-01  0.3462189E+00
         13   -1    0    0    0    0  0.00000000000E+00  0.00000000000E+00  0.14999999963E+04  0.15000000000E+04  0.10566000000E+00 0. -1.
        994   -1    0    0    0    0 -0.00000000000E+00 -0.00000000000E+00  0.11368683772E-12  0.17120000000E+03  0.17120000000E+03 0.  0.
         13    1    1    2    0    0 -0.15691641954E+02  0.57114081088E+01  0.23492377406E+02  0.28822747440E+02  0.10566000000E+00 0. -1.
        994    1    1    2    0    0  0.12294726499E+02 -0.97057321304E+00  0.59216986286E+01  0.17174576800E+03  0.17120000000E+03 0.  0.
        998    1    1    2    0    0  0.33969154549E+01 -0.47408348957E+01  0.14705859202E+04  0.14706314846E+04  0.10000000000E+02 0. -1.
</event>
<event>
 5    1  0.9130022E-009  0.3839512E+03  0.7957747E-01  0.3434132E+00
         13   -1    0    0    0    0  0.00000000000E+00  0.00000000000E+00  0.14999999963E+04  0.15000000000E+04  0.10566000000E+00 0.  1.
        994   -1    0    0    0    0 -0.00000000000E+00 -0.00000000000E+00  0.11368683772E-12  0.17120000000E+03  0.17120000000E+03 0.  0.
         13    1    1    2    0    0  0.20163479072E+02 -0.18850533320E+02  0.16630338908E+03  0.16857857776E+03  0.10566000000E+00 0.  1.
        994    1    1    2    0    0 -0.16069043585E+02  0.16765589486E+02  0.39333686606E+01  0.17281264578E+03  0.17120000000E+03 0.  0.
        998    1    1    2    0    0 -0.40944354862E+01  0.20849438346E+01  0.13297632385E+04  0.13298087765E+04  0.10000000000E+02 0.  0.
</event>
<event>
 5    1  0.1330287E-008  0.3854447E+03  0.7957747E-01  0.3427789E+00
         13   -1    0    0    0    0  0.00000000000E+00  0.00000000000E+00  0.14999999963E+04  0.15000000000E+04  0.10566000000E+00 0.  1.
        994   -1    0    0    0    0 -0.00000000000E+00 -0.00000000000E+00  0.11368683772E-12  0.17120000000E+03  0.17120000000E+03 0.  0.
         13    1    1    2    0    0 -0.65482082486E+01 -0.94284200684E+01  0.44008349671E+02  0.45480986588E+02  0.10566000000E+00 0.  1.
        994    1    1    2    0    0  0.10986092206E+02  0.15698006601E+02  0.26160601438E+01  0.17228872686E+03  0.17120000000E+03 0.  0.
        998    1    1    2    0    0 -0.44378839570E+01 -0.62695865326E+01  0.14533755865E+04  0.14534302865E+04  0.10000000000E+02 0.  1.
</event>
<event>
 5    1  0.9130022E-009  0.3769697E+03  0.7957747E-01  0.3464460E+00
         13   -1    0    0    0    0  0.00000000000E+00  0.00000000000E+00  0.14999999963E+04  0.15000000000E+04  0.10566000000E+00 0.  1.
        994   -1    0    0    0    0 -0.00000000000E+00 -0.00000000000E+00  0.11368683772E-12  0.17120000000E+03  0.17120000000E+03 0.  0.
         13    1    1    2    0    0 -0.15436616420E+02  0.20612648815E+02  0.52902938840E+02  0.58837934359E+02  0.10566000000E+00 0.  1.
        994    1    1    2    0    0  0.26135269211E+02 -0.24001591885E+02  0.99342962805E+01  0.17512069824E+03  0.17120000000E+03 0.  0.
        998    1    1    2    0    0 -0.10698652790E+02  0.33889430702E+01  0.14371627612E+04  0.14372413674E+04  0.10000000000E+02 0.  1.
</event>
<event>
 5    1  0.9130022E-009  0.3814031E+03  0.7957747E-01  0.3445072E+00
         13   -1    0    0    0    0  0.00000000000E+00  0.00000000000E+00  0.14999999963E+04  0.15000000000E+04  0.10566000000E+00 0. -1.
        994   -1    0    0    0    0 -0.00000000000E+00 -0.00000000000E+00  0.11368683772E-12  0.17120000000E+03  0.17120000000E+03 0.  0.
         13    1    1    2    0    0  0.60103160830E+01 -0.11471470207E+02  0.24828746407E+02  0.28003505857E+02  0.10566000000E+00 0. -1.
        994    1    1    2    0    0 -0.89990142822E+01 -0.21001236918E+02  0.51655487424E+01  0.17279513044E+03  0.17120000000E+03 0.  0.
        998    1    1    2    0    0  0.29886981992E+01  0.32472707125E+02  0.14700057011E+04  0.14704013637E+04  0.10000000000E+02 0. -1.
</event>
<event>
 5    1  0.9130022E-009  0.3848267E+03  0.7957747E-01  0.3430407E+00
         13   -1    0    0    0    0  0.00000000000E+00  0.00000000000E+00  0.14999999963E+04  0.15000000000E+04  0.10566000000E+00 0.  1.
        994   -1    0    0    0    0 -0.00000000000E+00 -0.00000000000E+00  0.11368683772E-12  0.17120000000E+03  0.17120000000E+03 0.  0.
         13    1    1    2    0    0  0.84077487208E+01  0.83140812663E+01  0.40696895385E+02  0.42379979281E+02  0.10566000000E+00 0.  1.
        994    1    1    2    0    0 -0.93732804521E+01 -0.73851847481E+00  0.20071414005E+01  0.17146974197E+03  0.17120000000E+03 0.  0.
        998    1    1    2    0    0  0.96553173132E+00 -0.75755627915E+01  0.14572959595E+04  0.14573502787E+04  0.10000000000E+02 0.  1.
</event>
<event>
 5    1  0.9130022E-009  0.3698550E+03  0.7957747E-01  0.3496557E+00
         13   -1    0    0    0    0  0.00000000000E+00  0.00000000000E+00  0.14999999963E+04  0.15000000000E+04  0.10566000000E+00 0.  1.
        994   -1    0    0    0    0 -0.00000000000E+00 -0.00000000000E+00  0.11368683772E-12  0.17120000000E+03  0.17120000000E+03 0.  0.
         13    1    1    2    0    0 -0.49724894466E+02  0.28946289722E+02  0.33906146137E+03  0.34390861950E+03  0.10566000000E+00 0.  1.
        994    1    1    2    0    0 -0.69976533249E+02 -0.31751312805E+02  0.30058966242E+02  0.19004694820E+03  0.17120000000E+03 0.  0.
        998    1    1    2    0    0  0.11970142771E+03  0.28050230828E+01  0.11308795687E+04  0.11372444323E+04  0.10000000000E+02 0.  1.
</event>
<event>
 5    1  0.9130022E-009  0.3847799E+03  0.7957747E-01  0.3430606E+00
         13   -1    0    0    0    0  0.00000000000E+00  0.00000000000E+00  0.14999999963E+04  0.15000000000E+04  0.10566000000E+00 0.  1.
        994   -1    0    0    0    0 -0.00000000000E+00 -0.00000000000E+00  0.11368683772E-12  0.17120000000E+03  0.17120000000E+03 0.  0.
         13    1    1    2    0    0  0.19804809627E+02  0.16615130315E+02  0.14677888238E+03  0.14903806398E+03  0.10566000000E+00 0.  1.
        994    1    1    2    0    0 -0.33618085834E+02 -0.31532558516E+02  0.87626109240E+01  0.17751253841E+03  0.17120000000E+03 0.  0.
        998    1    1    2    0    0  0.13813276208E+02  0.14917428202E+02  0.13444585030E+04  0.13446493976E+04  0.10000000000E+02 0.  1.
</event>
<event>
 5    1  0.9130022E-009  0.3846617E+03  0.7957747E-01  0.3431108E+00
         13   -1    0    0    0    0  0.00000000000E+00  0.00000000000E+00  0.14999999963E+04  0.15000000000E+04  0.10566000000E+00 0. -1.
        994   -1    0    0    0    0 -0.00000000000E+00 -0.00000000000E+00  0.11368683772E-12  0.17120000000E+03  0.17120000000E+03 0.  0.
         13    1    1    2    0    0 -0.10615258758E+02 -0.15909880340E+02  0.90590791449E+02  0.92587853795E+02  0.10566000000E+00 0. -1.
        994    1    1    2    0    0  0.69931590940E+01  0.29859746767E+02  0.49007565493E+01  0.17399415555E+03  0.17120000000E+03 0.  0.
        998    1    1    2    0    0  0.36220996636E+01 -0.13949866427E+02  0.14045084483E+04  0.14046179907E+04  0.10000000000E+02 0. -1.
</event>
<event>
 5    1  0.9130022E-009  0.4348187E+03  0.7957747E-01  0.3242459E+00
         13   -1    0    0    0    0  0.00000000000E+00  0.00000000000E+00  0.14999999963E+04  0.15000000000E+04  0.10566000000E+00 0.  1.
        994   -1    0    0    0    0 -0.00000000000E+00 -0.00000000000E+00  0.11368683772E-12  0.17120000000E+03  0.17120000000E+03 0.  0.
         13    1    1    2    0    0 -0.93144758664E+02 -0.33545728846E+02  0.79033355164E+02  0.12667890267E+03  0.10566000000E+00 0.  1.
        994    1    1    2    0    0  0.90380036589E+02  0.31975400260E+02  0.94099291175E+02  0.21761225571E+03  0.17120000000E+03 0.  0.
        998    1    1    2    0    0  0.27647220749E+01  0.15703285853E+01  0.13268673499E+04  0.13269088416E+04  0.10000000000E+02 0.  1.
</event>
<event>
 5    1  0.9130022E-009  0.3806019E+03  0.7957747E-01  0.3448542E+00
         13   -1    0    0    0    0  0.00000000000E+00  0.00000000000E+00  0.14999999963E+04  0.15000000000E+04  0.10566000000E+00 0. -1.
        994   -1    0    0    0    0 -0.00000000000E+00 -0.00000000000E+00  0.11368683772E-12  0.17120000000E+03  0.17120000000E+03 0.  0.
         13    1    1    2    0    0 -0.98916089353E+01 -0.69497344595E+01  0.17179082452E+02  0.21006541227E+02  0.10566000000E+00 0. -1.
        994    1    1    2    0    0  0.12173268679E+02  0.88526742024E+01  0.45858402683E+01  0.17192157585E+03  0.17120000000E+03 0.  0.
        998    1    1    2    0    0 -0.22816597434E+01 -0.19029397428E+01  0.14782350736E+04  0.14782718829E+04  0.10000000000E+02 0. -1.
</event>
<event>
 5    1  0.9130022E-009  0.3814183E+03  0.7957747E-01  0.3445006E+00
         13   -1    0    0    0    0  0.00000000000E+00  0.00000000000E+00  0.14999999963E+04  0.15000000000E+04  0.10566000000E+00 0. -1.
        994   -1    0    0    0    0 -0.00000000000E+00 -0.00000000000E+00  0.11368683772E-12  0.17120000000E+03  0.17120000000E+03 0.  0.
         13    1    1    2    0    0  0.31475482402E+02  0.14980146606E+02  0.19371883012E+03  0.19683014782E+03  0.10566000000E+00 0. -1.
        994    1    1    2    0    0 -0.91063183483E+01 -0.12964454792E+01  0.37004592022E+01  0.17148684848E+03  0.17120000000E+03 0.  0.
        998    1    1    2    0    0 -0.22369164054E+02 -0.13683701127E+02  0.13025807070E+04  0.13028830037E+04  0.10000000000E+02 0. -1.
</event>
<event>
 5    1  0.9130022E-009  0.3912104E+03  0.7957747E-01  0.3403753E+00
         13   -1    0    0    0    0  0.00000000000E+00  0.00000000000E+00  0.14999999963E+04  0.15000000000E+04  0.10566000000E+00 0. -1.
        994   -1    0    0    0    0 -0.00000000000E+00 -0.00000000000E+00  0.11368683772E-12  0.17120000000E+03  0.17120000000E+03 0.  0.
         13    1    1    2    0    0 -0.15178069506E+02  0.97067741480E+01 -0.34575449730E+01  0.18345600006E+02  0.10566000000E+00 0. -1.
        994    1    1    2    0    0 -0.14854521643E+02 -0.86035818389E+02  0.52056921641E+02  0.19910344535E+03  0.17120000000E+03 0.  0.
        998    1    1    2    0    0  0.30032591149E+02  0.76329044240E+02  0.14514006196E+04  0.14537509546E+04  0.10000000000E+02 0. -1.
</event>
<event>
 5    1  0.9130022E-009  0.3834565E+03  0.7957747E-01  0.3436245E+00
         13   -1    0    0    0    0  0.00000000000E+00  0.00000000000E+00  0.14999999963E+04  0.15000000000E+04  0.10566000000E+00 0.  1.
        994   -1    0    0    0    0 -0.00000000000E+00 -0.00000000000E+00  0.11368683772E-12  0.17120000000E+03  0.17120000000E+03 0.  0.
         13    1    1    2    0    0  0.22241283590E+02 -0.59737852313E+01  0.10873982908E+03  0.11115179890E+03  0.10566000000E+00 0.  1.
        994    1    1    2    0    0 -0.17319372052E+02 -0.31272513988E+01  0.34228320109E+01  0.17213627197E+03  0.17120000000E+03 0.  0.
        998    1    1    2    0    0 -0.49219115388E+01  0.91010366302E+01  0.13878373352E+04  0.13879119291E+04  0.10000000000E+02 0.  1.
</event>
<event>
 5    1  0.9130022E-009  0.3696865E+03  0.7957747E-01  0.3497333E+00
         13   -1    0    0    0    0  0.00000000000E+00  0.00000000000E+00  0.14999999963E+04  0.15000000000E+04  0.10566000000E+00 0.  1.
        994   -1    0    0    0    0 -0.00000000000E+00 -0.00000000000E+00  0.11368683772E-12  0.17120000000E+03  0.17120000000E+03 0.  0.
         13    1    1    2    0    0 -0.25913077607E+01 -0.56393240592E+02  0.16111845986E+03  0.17072223561E+03  0.10566000000E+00 0.  1.
        994    1    1    2    0    0 -0.35498270941E+01  0.40244318560E+02  0.15103918507E+02  0.17654963835E+03  0.17120000000E+03 0.  0.
        998    1    1    2    0    0  0.61411348548E+01  0.16148922031E+02  0.13237776179E+04  0.13239281260E+04  0.10000000000E+02 0.  1.
</event>
<event>
 5    1  0.9130022E-009  0.3843505E+03  0.7957747E-01  0.3432432E+00
         13   -1    0    0    0    0  0.00000000000E+00  0.00000000000E+00  0.14999999963E+04  0.15000000000E+04  0.10566000000E+00 0.  1.
        994   -1    0    0    0    0 -0.00000000000E+00 -0.00000000000E+00  0.11368683772E-12  0.17120000000E+03  0.17120000000E+03 0.  0.
         13    1    1    2    0    0  0.10297385466E+02 -0.16040524274E+02  0.71574083808E+02  0.74068854477E+02  0.10566000000E+00 0.  1.
        994    1    1    2    0    0 -0.51993232184E+02  0.34324098274E+02  0.14851066003E+02  0.18278794839E+03  0.17120000000E+03 0.  0.
        998    1    1    2    0    0  0.41695846717E+02 -0.18283574000E+02  0.14135748465E+04  0.14143431971E+04  0.10000000000E+02 0.  1.
</event>
<event>
 5    1  0.9130022E-009  0.3808647E+03  0.7957747E-01  0.3447402E+00
         13   -1    0    0    0    0  0.00000000000E+00  0.00000000000E+00  0.14999999963E+04  0.15000000000E+04  0.10566000000E+00 0. -1.
        994   -1    0    0    0    0 -0.00000000000E+00 -0.00000000000E+00  0.11368683772E-12  0.17120000000E+03  0.17120000000E+03 0.  0.
         13    1    1    2    0    0 -0.13418327743E+02 -0.16858905816E+01  0.23175459181E+02  0.26832942790E+02  0.10566000000E+00 0. -1.
        994    1    1    2    0    0  0.10967235171E+02 -0.35182218537E+01  0.41395915395E+01  0.17163692595E+03  0.17120000000E+03 0.  0.
        998    1    1    2    0    0  0.24510925724E+01  0.52041124353E+01  0.14726849456E+04  0.14727301313E+04  0.10000000000E+02 0. -1.
</event>
<event>
 5    1  0.9130022E-009  0.3856655E+03  0.7957747E-01  0.3426855E+00
         13   -1    0    0    0    0  0.00000000000E+00  0.00000000000E+00  0.14999999963E+04  0.15000000000E+04  0.10566000000E+00 0. -1.
        994   -1    0    0    0    0 -0.00000000000E+00 -0.00000000000E+00  0.11368683772E-12  0.17120000000E+03  0.17120000000E+03 0.  0.
         13    1    1    2    0    0 -0.14580337216E+02  0.29133138576E+01  0.74367730933E+02  0.75839595194E+02  0.10566000000E+00 0. -1.
        994    1    1    2    0    0  0.27357160395E+02 -0.10713333643E+02  0.41378337883E+01  0.17375198247E+03  0.17120000000E+03 0.  0.
        998    1    1    2    0    0 -0.12776823180E+02  0.78000197851E+01  0.14214944316E+04  0.14216084223E+04  0.10000000000E+02 0. -1.
</event>
<event>
 5    1  0.9130022E-009  0.3828020E+03  0.7957747E-01  0.3439048E+00
         13   -1    0    0    0    0  0.00000000000E+00  0.00000000000E+00  0.14999999963E+04  0.15000000000E+04  0.10566000000E+00 0.  1.
        994   -1    0    0    0    0 -0.00000000000E+00 -0.00000000000E+00  0.11368683772E-12  0.17120000000E+03  0.17120000000E+03 0.  0.
         13    1    1    2    0    0 -0.95394839581E+01 -0.12363082347E+02  0.35621868110E+02  0.38894423906E+02  0.10566000000E+00 0.  1.
        994    1    1    2    0    0  0.10837976694E+02  0.73866253415E+02  0.21411424744E+02  0.18799354841E+03  0.17120000000E+03 0.  0.
        998    1    1    2    0    0 -0.12984927356E+01 -0.61503171068E+02  0.14429667034E+04  0.14443120277E+04  0.10000000000E+02 0.  1.
</event>
<event>
 5    1  0.9130022E-009  0.3791849E+03  0.7957747E-01  0.3454715E+00
         13   -1    0    0    0    0  0.00000000000E+00  0.00000000000E+00  0.14999999963E+04  0.15000000000E+04  0.10566000000E+00 0.  1.
        994   -1    0    0    0    0 -0.00000000000E+00 -0.00000000000E+00  0.11368683772E-12  0.17120000000E+03  0.17120000000E+03 0.  0.
         13    1    1    2    0    0 -0.18251495447E+03  0.32164547635E+02  0.10682551705E+04  0.10842118737E+04  0.10566000000E+00 0.  1.
        994    1    1    2    0    0  0.18129853735E+03 -0.12003598194E+02  0.12459044517E+03  0.27900800175E+03  0.17120000000E+03 0.  0.
        998    1    1    2    0    0  0.12164171242E+01 -0.20160949442E+02  0.30715438066E+03  0.30798012454E+03  0.10000000000E+02 0.  1.
</event>
<event>
 5    1  0.9130022E-009  0.3781755E+03  0.7957747E-01  0.3459141E+00
         13   -1    0    0    0    0  0.00000000000E+00  0.00000000000E+00  0.14999999963E+04  0.15000000000E+04  0.10566000000E+00 0.  1.
        994   -1    0    0    0    0 -0.00000000000E+00 -0.00000000000E+00  0.11368683772E-12  0.17120000000E+03  0.17120000000E+03 0.  0.
         13    1    1    2    0    0  0.27720684437E+01  0.17350391482E+02  0.28331500435E+02  0.33337749309E+02  0.10566000000E+00 0.  1.
        994    1    1    2    0    0  0.16694524069E+01 -0.14005830002E+02  0.57263793487E+01  0.17187548332E+03  0.17120000000E+03 0.  0.
        998    1    1    2    0    0 -0.44415208506E+01 -0.33445614802E+01  0.14659421165E+04  0.14659867674E+04  0.10000000000E+02 0.  1.
</event>
<event>
 5    1  0.9130022E-009  0.3818577E+03  0.7957747E-01  0.3443109E+00
         13   -1    0    0    0    0  0.00000000000E+00  0.00000000000E+00  0.14999999963E+04  0.15000000000E+04  0.10566000000E+00 0.  1.
        994   -1    0    0    0    0 -0.00000000000E+00 -0.00000000000E+00  0.11368683772E-12  0.17120000000E+03  0.17120000000E+03 0.  0.
         13    1    1    2    0    0  0.52141826504E+01  0.15615668406E+02  0.44365070089E+02  0.47321320866E+02  0.10566000000E+00 0.  1.
        994    1    1    2    0    0  0.10067198233E+02  0.44484511306E+01  0.36009043935E+01  0.17159121105E+03  0.17120000000E+03 0.  0.
        998    1    1    2    0    0 -0.15281380884E+02 -0.20064119537E+02  0.14520340218E+04  0.14522874681E+04  0.10000000000E+02 0.  1.
</event>
<event>
 5    1  0.9130022E-009  0.3843499E+03  0.7957747E-01  0.3432434E+00
         13   -1    0    0    0    0  0.00000000000E+00  0.00000000000E+00  0.14999999963E+04  0.15000000000E+04  0.10566000000E+00 0.  1.
        994   -1    0    0    0    0 -0.00000000000E+00 -0.00000000000E+00  0.11368683772E-12  0.17120000000E+03  0.17120000000E+03 0.  0.
         13    1    1    2    0    0  0.15715159962E+02  0.20144515152E+02  0.13506548840E+03  0.13746077646E+03  0.10566000000E+00 0.  1.
        994    1    1    2    0    0 -0.30650831578E+02 -0.28827386246E+02  0.78100048481E+01  0.17646792301E+03  0.17120000000E+03 0.  0.
        998    1    1    2    0    0  0.14935671615E+02  0.86828710933E+01  0.13571245030E+04  0.13572713005E+04  0.10000000000E+02 0.  1.
</event>
<event>
 5    1  0.9130022E-009  0.3838796E+03  0.7957747E-01  0.3434438E+00
         13   -1    0    0    0    0  0.00000000000E+00  0.00000000000E+00  0.14999999963E+04  0.15000000000E+04  0.10566000000E+00 0. -1.
        994   -1    0    0    0    0 -0.00000000000E+00 -0.00000000000E+00  0.11368683772E-12  0.17120000000E+03  0.17120000000E+03 0.  0.
         13    1    1    2    0    0  0.12525214258E+02 -0.64904515740E+00  0.34470844095E+02  0.36681773519E+02  0.10566000000E+00 0. -1.
        994    1    1    2    0    0 -0.14266061172E+02  0.97552831766E+01  0.31738935463E+01  0.17209938888E+03  0.17120000000E+03 0.  0.
        998    1    1    2    0    0  0.17408469138E+01 -0.91062380192E+01  0.14623552586E+04  0.14624188376E+04  0.10000000000E+02 0. -1.
</event>
<event>
 5    1  0.9130022E-009  0.3794119E+03  0.7957747E-01  0.3453723E+00
         13   -1    0    0    0    0  0.00000000000E+00  0.00000000000E+00  0.14999999963E+04  0.15000000000E+04  0.10566000000E+00 0.  1.
        994   -1    0    0    0    0 -0.00000000000E+00 -0.00000000000E+00  0.11368683772E-12  0.17120000000E+03  0.17120000000E+03 0.  0.
         13    1    1    2    0    0 -0.27749318089E+02  0.13426620427E+02  0.11419520263E+03  0.11828294153E+03  0.10566000000E+00 0.  1.
        994    1    1    2    0    0  0.15851227405E+02  0.21564756734E+02  0.68332252857E+01  0.17341405108E+03  0.17120000000E+03 0.  0.
        998    1    1    2    0    0  0.11898090684E+02 -0.34991377161E+02  0.13789715684E+04  0.13795030074E+04  0.10000000000E+02 0.  1.
</event>
<event>
 5    1  0.9130022E-009  0.3823208E+03  0.7957747E-01  0.3441115E+00
         13   -1    0    0    0    0  0.00000000000E+00  0.00000000000E+00  0.14999999963E+04  0.15000000000E+04  0.10566000000E+00 0.  1.
        994   -1    0    0    0    0 -0.00000000000E+00 -0.00000000000E+00  0.11368683772E-12  0.17120000000E+03  0.17120000000E+03 0.  0.
         13    1    1    2    0    0 -0.26870956140E+02 -0.13702480080E+02  0.13825380712E+03  0.14150594542E+03  0.10566000000E+00 0.  1.
        994    1    1    2    0    0  0.28163439376E+02  0.15320177997E+02  0.63836888411E+01  0.17429308264E+03  0.17120000000E+03 0.  0.
        998    1    1    2    0    0 -0.12924832359E+01 -0.16176979167E+01  0.13553625003E+04  0.13554009719E+04  0.10000000000E+02 0.  1.
</event>
<event>
 5    1  0.9130022E-009  0.3842938E+03  0.7957747E-01  0.3432673E+00
         13   -1    0    0    0    0  0.00000000000E+00  0.00000000000E+00  0.14999999963E+04  0.15000000000E+04  0.10566000000E+00 0.  1.
        994   -1    0    0    0    0 -0.00000000000E+00 -0.00000000000E+00  0.11368683772E-12  0.17120000000E+03  0.17120000000E+03 0.  0.
         13    1    1    2    0    0 -0.13190147070E+02  0.29552269585E+02  0.18019175876E+03  0.18307484182E+03  0.10566000000E+00 0.  1.
        994    1    1    2    0    0  0.25392289068E+02 -0.55425888754E+02  0.14330090655E+02  0.18229533452E+03  0.17120000000E+03 0.  0.
        998    1    1    2    0    0 -0.12202141998E+02  0.25873619169E+02  0.13054781469E+04  0.13058298237E+04  0.10000000000E+02 0.  1.
</event>
<event>
 5    1  0.9130022E-009  0.3816262E+03  0.7957747E-01  0.3444108E+00
         13   -1    0    0    0    0  0.00000000000E+00  0.00000000000E+00  0.14999999963E+04  0.15000000000E+04  0.10566000000E+00 0.  1.
        994   -1    0    0    0    0 -0.00000000000E+00 -0.00000000000E+00  0.11368683772E-12  0.17120000000E+03  0.17120000000E+03 0.  0.
         13    1    1    2    0    0  0.27708953601E+02  0.78441472315E+01  0.15247643778E+03  0.15517213666E+03  0.10566000000E+00 0.  1.
        994    1    1    2    0    0  0.14118373649E+02 -0.10250817889E+02  0.43272963055E+01  0.17214114335E+03  0.17120000000E+03 0.  0.
        998    1    1    2    0    0 -0.41827327249E+02  0.24066706576E+01  0.13431962622E+04  0.13438867200E+04  0.10000000000E+02 0.  1.
</event>
<event>
 5    1  0.9130022E-009  0.3854264E+03  0.7957747E-01  0.3427866E+00
         13   -1    0    0    0    0  0.00000000000E+00  0.00000000000E+00  0.14999999963E+04  0.15000000000E+04  0.10566000000E+00 0.  1.
        994   -1    0    0    0    0 -0.00000000000E+00 -0.00000000000E+00  0.11368683772E-12  0.17120000000E+03  0.17120000000E+03 0.  0.
         13    1    1    2    0    0 -0.12967103062E+02  0.45243900460E+01  0.72238230346E+02  0.73532230720E+02  0.10566000000E+00 0.  1.
        994    1    1    2    0    0 -0.51929362501E+01 -0.99280766619E+01  0.18309358321E+01  0.17157600537E+03  0.17120000000E+03 0.  0.
        998    1    1    2    0    0  0.18160039313E+02  0.54036866158E+01  0.14259308301E+04  0.14260917639E+04  0.10000000000E+02 0.  1.
</event>
<event>
 5    1  0.9130022E-009  0.3856044E+03  0.7957747E-01  0.3427113E+00
         13   -1    0    0    0    0  0.00000000000E+00  0.00000000000E+00  0.14999999963E+04  0.15000000000E+04  0.10566000000E+00 0. -1.
        994   -1    0    0    0    0 -0.00000000000E+00 -0.00000000000E+00  0.11368683772E-12  0.17120000000E+03  0.17120000000E+03 0.  0.
         13    1    1    2    0    0 -0.18126894650E+01  0.13830245200E+02  0.69687985776E+02  0.71070303580E+02  0.10566000000E+00 0. -1.
        994    1    1    2    0    0 -0.19644108440E+02 -0.20241773752E+02  0.39461163405E+01  0.17355296666E+03  0.17120000000E+03 0.  0.
        998    1    1    2    0    0  0.21456797905E+02  0.64115285523E+01  0.14263658942E+04  0.14265767298E+04  0.10000000000E+02 0. -1.
</event>
<event>
 5    1  0.9130022E-009  0.3834833E+03  0.7957747E-01  0.3436130E+00
         13   -1    0    0    0    0  0.00000000000E+00  0.00000000000E+00  0.14999999963E+04  0.15000000000E+04  0.10566000000E+00 0. -1.
        994   -1    0    0    0    0 -0.00000000000E+00 -0.00000000000E+00  0.11368683772E-12  0.17120000000E+03  0.17120000000E+03 0.  0.
         13    1    1    2    0    0 -0.59032375910E+02 -0.43737505430E+02  0.12752805738E+03  0.14717746896E+03  0.10566000000E+00 0. -1.
        994    1    1    2    0    0  0.62718241089E+02  0.48910507646E+02  0.41860840520E+02  0.19335869645E+03  0.17120000000E+03 0.  0.
        998    1    1    2    0    0 -0.36858651791E+01 -0.51730022159E+01  0.13306110984E+04  0.13306638346E+04  0.10000000000E+02 0. -1.
</event>
<event>
 5    1  0.9130022E-009  0.3742964E+03  0.7957747E-01  0.3476375E+00
         13   -1    0    0    0    0  0.00000000000E+00  0.00000000000E+00  0.14999999963E+04  0.15000000000E+04  0.10566000000E+00 0. -1.
        994   -1    0    0    0    0 -0.00000000000E+00 -0.00000000000E+00  0.11368683772E-12  0.17120000000E+03  0.17120000000E+03 0.  0.
         13    1    1    2    0    0  0.19253936209E+02 -0.44371805508E+00  0.23508574739E+02  0.30390379984E+02  0.10566000000E+00 0. -1.
        994    1    1    2    0    0 -0.11226552753E+02 -0.85033682982E+01  0.77165561852E+01  0.17195152805E+03  0.17120000000E+03 0.  0.
        998    1    1    2    0    0 -0.80273834567E+01  0.89470863533E+01  0.14687748654E+04  0.14688580920E+04  0.10000000000E+02 0. -1.
</event>
<event>
 5    1  0.9130022E-009  0.3854624E+03  0.7957747E-01  0.3427714E+00
         13   -1    0    0    0    0  0.00000000000E+00  0.00000000000E+00  0.14999999963E+04  0.15000000000E+04  0.10566000000E+00 0.  1.
        994   -1    0    0    0    0 -0.00000000000E+00 -0.00000000000E+00  0.11368683772E-12  0.17120000000E+03  0.17120000000E+03 0.  0.
         13    1    1    2    0    0 -0.85908819535E+01 -0.13233032154E+02  0.89201574166E+02  0.90586137960E+02  0.10566000000E+00 0.  1.
        994    1    1    2    0    0  0.85436475157E+01  0.67562273717E+01  0.17904218767E+01  0.17155548995E+03  0.17120000000E+03 0.  0.
        998    1    1    2    0    0  0.47234437838E-01  0.64768047825E+01  0.14090080002E+04  0.14090583721E+04  0.10000000000E+02 0.  1.
</event>
<event>
 5    1  0.9130022E-009  0.3845211E+03  0.7957747E-01  0.3431706E+00
         13   -1    0    0    0    0  0.00000000000E+00  0.00000000000E+00  0.14999999963E+04  0.15000000000E+04  0.10566000000E+00 0.  1.
        994   -1    0    0    0    0 -0.00000000000E+00 -0.00000000000E+00  0.11368683772E-12  0.17120000000E+03  0.17120000000E+03 0.  0.
         13    1    1    2    0    0 -0.96319760195E+01 -0.51100514883E+01  0.38645960057E+02  0.40154812676E+02  0.10566000000E+00 0.  1.
        994    1    1    2    0    0 -0.71533898211E+01 -0.58858018861E+02  0.13534170568E+02  0.18168117994E+03  0.17120000000E+03 0.  0.
        998    1    1    2    0    0  0.16785365841E+02  0.63968070349E+02  0.14478198657E+04  0.14493640074E+04  0.10000000000E+02 0.  1.
</event>
<event>
 5    1  0.9130022E-009  0.3840301E+03  0.7957747E-01  0.3433796E+00
         13   -1    0    0    0    0  0.00000000000E+00  0.00000000000E+00  0.14999999963E+04  0.15000000000E+04  0.10566000000E+00 0.  1.
        994   -1    0    0    0    0 -0.00000000000E+00 -0.00000000000E+00  0.11368683772E-12  0.17120000000E+03  0.17120000000E+03 0.  0.
         13    1    1    2    0    0 -0.23746888939E+02 -0.52695336582E+01  0.12336573494E+03  0.12574099745E+03  0.10566000000E+00 0.  1.
        994    1    1    2    0    0  0.30369168434E+02  0.71341577332E+01  0.53296010789E+01  0.17410062391E+03  0.17120000000E+03 0.  0.
        998    1    1    2    0    0 -0.66222794941E+01 -0.18646240750E+01  0.13713046603E+04  0.13713583786E+04  0.10000000000E+02 0.  1.
</event>
<event>
 5    1  0.9130022E-009  0.3810972E+03  0.7957747E-01  0.3446395E+00
         13   -1    0    0    0    0  0.00000000000E+00  0.00000000000E+00  0.14999999963E+04  0.15000000000E+04  0.10566000000E+00 0.  1.
        994   -1    0    0    0    0 -0.00000000000E+00 -0.00000000000E+00  0.11368683772E-12  0.17120000000E+03  0.17120000000E+03 0.  0.
         13    1    1    2    0    0 -0.13999283357E+02  0.10552815314E+02  0.40856745541E+02  0.44459269740E+02  0.10566000000E+00 0.  1.
        994    1    1    2    0    0  0.13566448147E+02 -0.96143039353E+01  0.45017511065E+01  0.17206449116E+03  0.17120000000E+03 0.  0.
        998    1    1    2    0    0  0.43283521069E+00 -0.93851137905E+00  0.14546414996E+04  0.14546762391E+04  0.10000000000E+02 0.  1.
</event>
<event>
 5    1  0.9130022E-009  0.3838183E+03  0.7957747E-01  0.3434699E+00
         13   -1    0    0    0    0  0.00000000000E+00  0.00000000000E+00  0.14999999963E+04  0.15000000000E+04  0.10566000000E+00 0. -1.
        994   -1    0    0    0    0 -0.00000000000E+00 -0.00000000000E+00  0.11368683772E-12  0.17120000000E+03  0.17120000000E+03 0.  0.
         13    1    1    2    0    0  0.13416883132E+02 -0.15920152346E+00  0.42621880564E+02  0.44684157874E+02  0.10566000000E+00 0. -1.
        994    1    1    2    0    0  0.49339316722E+01  0.82347121293E+01  0.25222579029E+01  0.17148748045E+03  0.17120000000E+03 0.  0.
        998    1    1    2    0    0 -0.18350814804E+02 -0.80755106059E+01  0.14548558578E+04  0.14550283617E+04  0.10000000000E+02 0. -1.
</event>
<event>
 5    1  0.9130022E-009  0.3819402E+03  0.7957747E-01  0.3442754E+00
         13   -1    0    0    0    0  0.00000000000E+00  0.00000000000E+00  0.14999999963E+04  0.15000000000E+04  0.10566000000E+00 0. -1.
        994   -1    0    0    0    0 -0.00000000000E+00 -0.00000000000E+00  0.11368683772E-12  0.17120000000E+03  0.17120000000E+03 0.  0.
         13    1    1    2    0    0 -0.32307230112E+00 -0.14768662606E+02  0.32537701382E+02  0.35734170567E+02  0.10566000000E+00 0. -1.
        994    1    1    2    0    0  0.18578912491E+02  0.17236327068E+02  0.52932451742E+01  0.17314654315E+03  0.17120000000E+03 0.  0.
        998    1    1    2    0    0 -0.18255840190E+02 -0.24676644620E+01  0.14621690497E+04  0.14623192863E+04  0.10000000000E+02 0. -1.
</event>
<event>
 5    1  0.9130022E-009  0.3706491E+03  0.7957747E-01  0.3492913E+00
         13   -1    0    0    0    0  0.00000000000E+00  0.00000000000E+00  0.14999999963E+04  0.15000000000E+04  0.10566000000E+00 0.  1.
        994   -1    0    0    0    0 -0.00000000000E+00 -0.00000000000E+00  0.11368683772E-12  0.17120000000E+03  0.17120000000E+03 0.  0.
         13    1    1    2    0    0 -0.85401999726E+01 -0.11869905175E+02  0.78884700582E+01  0.16615317882E+02  0.10566000000E+00 0.  1.
        994    1    1    2    0    0  0.80146457080E+01  0.10761215994E+02  0.95515117430E+01  0.17199043489E+03  0.17120000000E+03 0.  0.
        998    1    1    2    0    0  0.52555426455E+00  0.11086891809E+01  0.14825600145E+04  0.14825942472E+04  0.10000000000E+02 0.  1.
</event>
<event>
 5    1  0.9130022E-009  0.3850189E+03  0.7957747E-01  0.3429592E+00
         13   -1    0    0    0    0  0.00000000000E+00  0.00000000000E+00  0.14999999963E+04  0.15000000000E+04  0.10566000000E+00 0. -1.
        994   -1    0    0    0    0 -0.00000000000E+00 -0.00000000000E+00  0.11368683772E-12  0.17120000000E+03  0.17120000000E+03 0.  0.
         13    1    1    2    0    0  0.90103696957E+01 -0.13524090538E+02  0.96541313039E+02  0.97899561154E+02  0.10566000000E+00 0. -1.
        994    1    1    2    0    0  0.33316945401E+01 -0.10483983878E+02  0.20188217171E+01  0.17156494324E+03  0.17120000000E+03 0.  0.
        998    1    1    2    0    0 -0.12342064236E+02  0.24008074416E+02  0.14014398615E+04  0.14017354956E+04  0.10000000000E+02 0. -1.
</event>
<event>
 5    1  0.9130022E-009  0.3044212E+03  0.7957747E-01  0.3864952E+00
         13   -1    0    0    0    0  0.00000000000E+00  0.00000000000E+00  0.14999999963E+04  0.15000000000E+04  0.10566000000E+00 0. -1.
        994   -1    0    0    0    0 -0.00000000000E+00 -0.00000000000E+00  0.11368683772E-12  0.17120000000E+03  0.17120000000E+03 0.  0.
         13    1    1    2    0    0  0.11604801926E+03 -0.15393654137E+03  0.67752167160E+03  0.70441410278E+03  0.10566000000E+00 0. -1.
        994    1    1    2    0    0 -0.10262463644E+03  0.14792232756E+03  0.14216417181E+03  0.28623927533E+03  0.17120000000E+03 0.  0.
        998    1    1    2    0    0 -0.13423382822E+02  0.60142138071E+01  0.68031415287E+03  0.68054662189E+03  0.10000000000E+02 0. -1.
</event>
<event>
 5    1  0.9130022E-009  0.3847450E+03  0.7957747E-01  0.3430754E+00
         13   -1    0    0    0    0  0.00000000000E+00  0.00000000000E+00  0.14999999963E+04  0.15000000000E+04  0.10566000000E+00 0. -1.
        994   -1    0    0    0    0 -0.00000000000E+00 -0.00000000000E+00  0.11368683772E-12  0.17120000000E+03  0.17120000000E+03 0.  0.
         13    1    1    2    0    0  0.78817423330E+01 -0.17398975859E+02  0.11106177194E+03  0.11269238915E+03  0.10566000000E+00 0. -1.
        994    1    1    2    0    0  0.55267414949E+01  0.66617880838E+01  0.20034216155E+01  0.17143038818E+03  0.17120000000E+03 0.  0.
        998    1    1    2    0    0 -0.13408483828E+02  0.10737187775E+02  0.13869348027E+04  0.13870772227E+04  0.10000000000E+02 0. -1.
</event>
<event>
 5    1  0.9130022E-009  0.3847478E+03  0.7957747E-01  0.3430743E+00
         13   -1    0    0    0    0  0.00000000000E+00  0.00000000000E+00  0.14999999963E+04  0.15000000000E+04  0.10566000000E+00 0.  1.
        994   -1    0    0    0    0 -0.00000000000E+00 -0.00000000000E+00  0.11368683772E-12  0.17120000000E+03  0.17120000000E+03 0.  0.
         13    1    1    2    0    0  0.13469714584E+02 -0.32706896102E+01  0.53651283848E+02  0.55413013310E+02  0.10566000000E+00 0.  1.
        994    1    1    2    0    0 -0.11102286387E+02  0.63384862959E+01  0.22935334704E+01  0.17169198428E+03  0.17120000000E+03 0.  0.
        998    1    1    2    0    0 -0.23674281975E+01 -0.30677966858E+01  0.14440551790E+04  0.14440950024E+04  0.10000000000E+02 0.  1.
</event>
<event>
 5    1  0.9130022E-009  0.3853645E+03  0.7957747E-01  0.3428128E+00
         13   -1    0    0    0    0  0.00000000000E+00  0.00000000000E+00  0.14999999963E+04  0.15000000000E+04  0.10566000000E+00 0. -1.
        994   -1    0    0    0    0 -0.00000000000E+00 -0.00000000000E+00  0.11368683772E-12  0.17120000000E+03  0.17120000000E+03 0.  0.
         13    1    1    2    0    0  0.18580563634E+01  0.13470835581E+02  0.61644936699E+02  0.63127055764E+02  0.10566000000E+00 0. -1.
        994    1    1    2    0    0  0.18224654075E+01 -0.15269660966E+02  0.22264705477E+01  0.17190369716E+03  0.17120000000E+03 0.  0.
        998    1    1    2    0    0 -0.36805217709E+01  0.17988253849E+01  0.14361285890E+04  0.14361692471E+04  0.10000000000E+02 0. -1.
</event>
<event>
 5    1  0.9130022E-009  0.3799977E+03  0.7957747E-01  0.3451169E+00
         13   -1    0    0    0    0  0.00000000000E+00  0.00000000000E+00  0.14999999963E+04  0.15000000000E+04  0.10566000000E+00 0. -1.
        994   -1    0    0    0    0 -0.00000000000E+00 -0.00000000000E+00  0.11368683772E-12  0.17120000000E+03  0.17120000000E+03 0.  0.
         13    1    1    2    0    0 -0.14495520320E+02  0.34626441969E+02  0.16852861736E+03  0.17265867087E+03  0.10566000000E+00 0. -1.
        994    1    1    2    0    0  0.71799296955E+02 -0.30880180730E+00  0.21564969768E+02  0.18689494997E+03  0.17120000000E+03 0.  0.
        998    1    1    2    0    0 -0.57303776635E+02 -0.34317640162E+02  0.13099064092E+04  0.13116463792E+04  0.10000000000E+02 0. -1.
</event>
<event>
 5    1  0.9130022E-009  0.3849073E+03  0.7957747E-01  0.3430066E+00
         13   -1    0    0    0    0  0.00000000000E+00  0.00000000000E+00  0.14999999963E+04  0.15000000000E+04  0.10566000000E+00 0. -1.
        994   -1    0    0    0    0 -0.00000000000E+00 -0.00000000000E+00  0.11368683772E-12  0.17120000000E+03  0.17120000000E+03 0.  0.
         13    1    1    2    0    0 -0.73412695297E+01 -0.87545994316E+01  0.38861175645E+02  0.40506041352E+02  0.10566000000E+00 0. -1.
        994    1    1    2    0    0  0.86004147691E+01  0.21741233586E+01  0.19351052496E+01  0.17144059781E+03  0.17120000000E+03 0.  0.
        998    1    1    2    0    0 -0.12591452394E+01  0.65804760729E+01  0.14592037154E+04  0.14592533608E+04  0.10000000000E+02 0. -1.
</event>
<event>
 5    1  0.9130022E-009  0.3768352E+03  0.7957747E-01  0.3465056E+00
         13   -1    0    0    0    0  0.00000000000E+00  0.00000000000E+00  0.14999999963E+04  0.15000000000E+04  0.10566000000E+00 0.  1.
        994   -1    0    0    0    0 -0.00000000000E+00 -0.00000000000E+00  0.11368683772E-12  0.17120000000E+03  0.17120000000E+03 0.  0.
         13    1    1    2    0    0 -0.24861288158E+01  0.12586639077E+02  0.11707819808E+02  0.17369183298E+02  0.10566000000E+00 0.  1.
        994    1    1    2    0    0  0.12762027011E+02 -0.98612948893E+01  0.66185710220E+01  0.17208532753E+03  0.17120000000E+03 0.  0.
        998    1    1    2    0    0 -0.10275898196E+02 -0.27253441879E+01  0.14816736054E+04  0.14817454892E+04  0.10000000000E+02 0.  1.
</event>
<event>
 5    1  0.9130022E-009  0.3762527E+03  0.7957747E-01  0.3467639E+00
         13   -1    0    0    0    0  0.00000000000E+00  0.00000000000E+00  0.14999999963E+04  0.15000000000E+04  0.10566000000E+00 0.  1.
        994   -1    0    0    0    0 -0.00000000000E+00 -0.00000000000E+00  0.11368683772E-12  0.17120000000E+03  0.17120000000E+03 0.  0.
         13    1    1    2    0    0  0.39772975124E+01 -0.14934855617E+02  0.16032736066E+02  0.22269454362E+02  0.10566000000E+00 0.  1.
        994    1    1    2    0    0  0.40380265792E+01  0.41181591799E+02  0.11854641640E+02  0.17652818951E+03  0.17120000000E+03 0.  0.
        998    1    1    2    0    0 -0.80153240916E+01 -0.26246736182E+02  0.14721126186E+04  0.14724023561E+04  0.10000000000E+02 0.  1.
</event>
<event>
 5    1  0.9130022E-009  0.3801328E+03  0.7957747E-01  0.3450580E+00
         13   -1    0    0    0    0  0.00000000000E+00  0.00000000000E+00  0.14999999963E+04  0.15000000000E+04  0.10566000000E+00 0.  1.
        994   -1    0    0    0    0 -0.00000000000E+00 -0.00000000000E+00  0.11368683772E-12  0.17120000000E+03  0.17120000000E+03 0.  0.
         13    1    1    2    0    0  0.19809114868E+02 -0.10820313933E+02  0.59716830079E+02  0.63840357018E+02  0.10566000000E+00 0.  1.
        994    1    1    2    0    0 -0.17658093600E+02  0.10175705761E+02  0.54552070421E+01  0.17249507976E+03  0.17120000000E+03 0.  0.
        998    1    1    2    0    0 -0.21510212685E+01  0.64460817197E+00  0.14348279592E+04  0.14348645632E+04  0.10000000000E+02 0.  1.
</event>
<event>
 5    1  0.9130022E-009  0.3909402E+03  0.7957747E-01  0.3404863E+00
         13   -1    0    0    0    0  0.00000000000E+00  0.00000000000E+00  0.14999999963E+04  0.15000000000E+04  0.10566000000E+00 0. -1.
        994   -1    0    0    0    0 -0.00000000000E+00 -0.00000000000E+00  0.11368683772E-12  0.17120000000E+03  0.17120000000E+03 0.  0.
         13    1    1    2    0    0  0.43197520250E+02 -0.17489133639E+02  0.39519818709E+02  0.61104196141E+02  0.10566000000E+00 0. -1.
        994    1    1    2    0    0 -0.35875527583E+02  0.18649292761E+02  0.28669283252E+02  0.17823079813E+03  0.17120000000E+03 0.  0.
        998    1    1    2    0    0 -0.73219926668E+01 -0.11601591213E+01  0.14318108943E+04  0.14318650057E+04  0.10000000000E+02 0. -1.
</event>
<event>
 5    1  0.9130022E-009  0.3846706E+03  0.7957747E-01  0.3431070E+00
         13   -1    0    0    0    0  0.00000000000E+00  0.00000000000E+00  0.14999999963E+04  0.15000000000E+04  0.10566000000E+00 0. -1.
        994   -1    0    0    0    0 -0.00000000000E+00 -0.00000000000E+00  0.11368683772E-12  0.17120000000E+03  0.17120000000E+03 0.  0.
         13    1    1    2    0    0  0.42205251667E+01  0.14273022288E+02  0.60593231859E+02  0.62394574356E+02  0.10566000000E+00 0. -1.
        994    1    1    2    0    0 -0.37106421796E+01 -0.12043342042E+02  0.23167743752E+01  0.17167882338E+03  0.17120000000E+03 0.  0.
        998    1    1    2    0    0 -0.50988298710E+00 -0.22296802464E+01  0.14370899900E+04  0.14371266023E+04  0.10000000000E+02 0. -1.
</event>
<event>
 5    1  0.9130022E-009  0.3759074E+03  0.7957747E-01  0.3469175E+00
         13   -1    0    0    0    0  0.00000000000E+00  0.00000000000E+00  0.14999999963E+04  0.15000000000E+04  0.10566000000E+00 0.  1.
        994   -1    0    0    0    0 -0.00000000000E+00 -0.00000000000E+00  0.11368683772E-12  0.17120000000E+03  0.17120000000E+03 0.  0.
         13    1    1    2    0    0  0.38216956025E+01  0.42004078281E+02  0.15118088316E+03  0.15695419251E+03  0.10566000000E+00 0.  1.
        994    1    1    2    0    0 -0.58151022987E+01 -0.11506186133E+02  0.67769553050E+01  0.17181843573E+03  0.17120000000E+03 0.  0.
        998    1    1    2    0    0  0.19934066962E+01 -0.30497892148E+02  0.13420421578E+04  0.13424273718E+04  0.10000000000E+02 0.  1.
</event>
<event>
 5    1  0.9130022E-009  0.3766258E+03  0.7957747E-01  0.3465983E+00
         13   -1    0    0    0    0  0.00000000000E+00  0.00000000000E+00  0.14999999963E+04  0.15000000000E+04  0.10566000000E+00 0.  1.
        994   -1    0    0    0    0 -0.00000000000E+00 -0.00000000000E+00  0.11368683772E-12  0.17120000000E+03  0.17120000000E+03 0.  0.
         13    1    1    2    0    0  0.27478201479E+02 -0.16186209467E+02  0.92224274381E+02  0.97582646421E+02  0.10566000000E+00 0.  1.
        994    1    1    2    0    0  0.24274616277E+01  0.50429302499E+01  0.59521040410E+01  0.17139484023E+03  0.17120000000E+03 0.  0.
        998    1    1    2    0    0 -0.29905663107E+02  0.11143279217E+02  0.14018236179E+04  0.14022225133E+04  0.10000000000E+02 0.  1.
</event>
<event>
 5    1  0.9130022E-009  0.4252665E+03  0.7957747E-01  0.3275005E+00
         13   -1    0    0    0    0  0.00000000000E+00  0.00000000000E+00  0.14999999963E+04  0.15000000000E+04  0.10566000000E+00 0. -1.
        994   -1    0    0    0    0 -0.00000000000E+00 -0.00000000000E+00  0.11368683772E-12  0.17120000000E+03  0.17120000000E+03 0.  0.
         13    1    1    2    0    0  0.10969897906E+03 -0.10989928129E+02  0.11443358830E+03  0.15890154758E+03  0.10566000000E+00 0. -1.
        994    1    1    2    0    0 -0.11441418430E+03  0.83011127447E+01  0.10428018361E+03  0.23096170838E+03  0.17120000000E+03 0.  0.
        998    1    1    2    0    0  0.47152052381E+01  0.26888153844E+01  0.12812862244E+04  0.12813367440E+04  0.10000000000E+02 0. -1.
</event>
<event>
 5    1  0.9130022E-009  0.3850542E+03  0.7957747E-01  0.3429442E+00
         13   -1    0    0    0    0  0.00000000000E+00  0.00000000000E+00  0.14999999963E+04  0.15000000000E+04  0.10566000000E+00 0. -1.
        994   -1    0    0    0    0 -0.00000000000E+00 -0.00000000000E+00  0.11368683772E-12  0.17120000000E+03  0.17120000000E+03 0.  0.
         13    1    1    2    0    0 -0.11848235170E+02  0.24683687581E+01  0.44656601896E+02  0.46267664496E+02  0.10566000000E+00 0. -1.
        994    1    1    2    0    0  0.12443313495E+02  0.11480077427E+00  0.21125320734E+01  0.17166464989E+03  0.17120000000E+03 0.  0.
        998    1    1    2    0    0 -0.59507832409E+00 -0.25831695324E+01  0.14532308623E+04  0.14532676856E+04  0.10000000000E+02 0. -1.
</event>
<event>
 5    1  0.9130022E-009  0.3766574E+03  0.7957747E-01  0.3465843E+00
         13   -1    0    0    0    0  0.00000000000E+00  0.00000000000E+00  0.14999999963E+04  0.15000000000E+04  0.10566000000E+00 0. -1.
        994   -1    0    0    0    0 -0.00000000000E+00 -0.00000000000E+00  0.11368683772E-12  0.17120000000E+03  0.17120000000E+03 0.  0.
         13    1    1    2    0    0  0.14647395475E+02 -0.32333380981E+01  0.17461550764E+02  0.23019938935E+02  0.10566000000E+00 0. -1.
        994    1    1    2    0    0  0.53099335869E+01 -0.46287609732E+01  0.59978441683E+01  0.17144980303E+03  0.17120000000E+03 0.  0.
        998    1    1    2    0    0 -0.19957329062E+02  0.78620990713E+01  0.14765406013E+04  0.14767302580E+04  0.10000000000E+02 0. -1.
</event>
<event>
 5    1  0.9130022E-009  0.3770958E+03  0.7957747E-01  0.3463902E+00
         13   -1    0    0    0    0  0.00000000000E+00  0.00000000000E+00  0.14999999963E+04  0.15000000000E+04  0.10566000000E+00 0. -1.
        994   -1    0    0    0    0 -0.00000000000E+00 -0.00000000000E+00  0.11368683772E-12  0.17120000000E+03  0.17120000000E+03 0.  0.
         13    1    1    2    0    0 -0.48064223156E+02  0.25522033064E+02  0.30968157375E+03  0.31442683092E+03  0.10566000000E+00 0. -1.
        994    1    1    2    0    0  0.11806599318E+02 -0.25477702625E+01  0.60989782985E+01  0.17173387685E+03  0.17120000000E+03 0.  0.
        998    1    1    2    0    0  0.36257623839E+02 -0.22974262801E+02  0.11842194442E+04  0.11850392922E+04  0.10000000000E+02 0. -1.
</event>
<event>
 5    1  0.9130022E-009  0.3833731E+03  0.7957747E-01  0.3436602E+00
         13   -1    0    0    0    0  0.00000000000E+00  0.00000000000E+00  0.14999999963E+04  0.15000000000E+04  0.10566000000E+00 0. -1.
        994   -1    0    0    0    0 -0.00000000000E+00 -0.00000000000E+00  0.11368683772E-12  0.17120000000E+03  0.17120000000E+03 0.  0.
         13    1    1    2    0    0  0.35517220811E+01 -0.29343442957E+02  0.16729561255E+03  0.16988668434E+03  0.10566000000E+00 0. -1.
        994    1    1    2    0    0 -0.88875139457E+01  0.24265904491E+02  0.46510295743E+01  0.17320188827E+03  0.17120000000E+03 0.  0.
        998    1    1    2    0    0  0.53357918647E+01  0.50775384666E+01  0.13280533542E+04  0.13281114274E+04  0.10000000000E+02 0. -1.
</event>
<event>
 5    1  0.9130022E-009  0.3544907E+03  0.7957747E-01  0.3570353E+00
         13   -1    0    0    0    0  0.00000000000E+00  0.00000000000E+00  0.14999999963E+04  0.15000000000E+04  0.10566000000E+00 0.  1.
        994   -1    0    0    0    0 -0.00000000000E+00 -0.00000000000E+00  0.11368683772E-12  0.17120000000E+03  0.17120000000E+03 0.  0.
         13    1    1    2    0    0 -0.22027292685E+03 -0.16645406280E+03  0.10267807385E+04  0.10632524693E+04  0.10566000000E+00 0.  1.
        994    1    1    2    0    0  0.15933495063E+03  0.16778444386E+03  0.26673809520E+03  0.39242565860E+03  0.17120000000E+03 0.  0.
        998    1    1    2    0    0  0.60937976221E+02 -0.13303810663E+01  0.20648116258E+03  0.21552187212E+03  0.10000000000E+02 0.  1.
</event>
<event>
 5    1  0.9130022E-009  0.3828447E+03  0.7957747E-01  0.3438865E+00
         13   -1    0    0    0    0  0.00000000000E+00  0.00000000000E+00  0.14999999963E+04  0.15000000000E+04  0.10566000000E+00 0. -1.
        994   -1    0    0    0    0 -0.00000000000E+00 -0.00000000000E+00  0.11368683772E-12  0.17120000000E+03  0.17120000000E+03 0.  0.
         13    1    1    2    0    0  0.15738465038E+02  0.29415909884E+01  0.45560019416E+02  0.48291601470E+02  0.10566000000E+00 0. -1.
        994    1    1    2    0    0 -0.14938898305E+02 -0.54137132599E+01  0.35406161165E+01  0.17197225048E+03  0.17120000000E+03 0.  0.
        998    1    1    2    0    0 -0.79956673324E+00  0.24721222715E+01  0.14508993607E+04  0.14509361480E+04  0.10000000000E+02 0. -1.
</event>
<event>
 5    1  0.9130022E-009  0.3726541E+03  0.7957747E-01  0.3483782E+00
         13   -1    0    0    0    0  0.00000000000E+00  0.00000000000E+00  0.14999999963E+04  0.15000000000E+04  0.10566000000E+00 0.  1.
        994   -1    0    0    0    0 -0.00000000000E+00 -0.00000000000E+00  0.11368683772E-12  0.17120000000E+03  0.17120000000E+03 0.  0.
         13    1    1    2    0    0 -0.95500693606E+00 -0.51522868781E+02  0.15938197446E+03  0.16750565062E+03  0.10566000000E+00 0.  1.
        994    1    1    2    0    0  0.14472798425E+02  0.38264877792E+02  0.13644660342E+02  0.17654823568E+03  0.17120000000E+03 0.  0.
        998    1    1    2    0    0 -0.13517791489E+02  0.13257990989E+02  0.13269733615E+04  0.13271461137E+04  0.10000000000E+02 0. -1.
</event>
<event>
 5    1  0.9130022E-009  0.3790340E+03  0.7957747E-01  0.3455375E+00
         13   -1    0    0    0    0  0.00000000000E+00  0.00000000000E+00  0.14999999963E+04  0.15000000000E+04  0.10566000000E+00 0. -1.
        994   -1    0    0    0    0 -0.00000000000E+00 -0.00000000000E+00  0.11368683772E-12  0.17120000000E+03  0.17120000000E+03 0.  0.
         13    1    1    2    0    0  0.53197243418E+01 -0.26704092054E+02  0.70461587931E+02  0.75539754681E+02  0.10566000000E+00 0. -1.
        994    1    1    2    0    0 -0.87422550724E+00  0.43913742415E+02  0.11118664035E+02  0.17709388960E+03  0.17120000000E+03 0.  0.
        998    1    1    2    0    0 -0.44454988346E+01 -0.17209650360E+02  0.14184197443E+04  0.14185663557E+04  0.10000000000E+02 0. -1.
</event>
<event>
 5    1  0.9130022E-009  0.3702573E+03  0.7957747E-01  0.3494709E+00
         13   -1    0    0    0    0  0.00000000000E+00  0.00000000000E+00  0.14999999963E+04  0.15000000000E+04  0.10566000000E+00 0.  1.
        994   -1    0    0    0    0 -0.00000000000E+00 -0.00000000000E+00  0.11368683772E-12  0.17120000000E+03  0.17120000000E+03 0.  0.
         13    1    1    2    0    0  0.15260393157E+03 -0.20983331588E+02  0.52576837109E+03  0.54786919181E+03  0.10566000000E+00 0.  1.
        994    1    1    2    0    0 -0.18590340806E+03 -0.38765976436E+02  0.15046408190E+03  0.29666775692E+03  0.17120000000E+03 0.  0.
        998    1    1    2    0    0  0.33299476485E+02  0.59749308024E+02  0.82376754329E+03  0.82666305126E+03  0.10000000000E+02 0.  1.
</event>
<event>
 5    1  0.9130022E-009  0.3856558E+03  0.7957747E-01  0.3426896E+00
         13   -1    0    0    0    0  0.00000000000E+00  0.00000000000E+00  0.14999999963E+04  0.15000000000E+04  0.10566000000E+00 0.  1.
        994   -1    0    0    0    0 -0.00000000000E+00 -0.00000000000E+00  0.11368683772E-12  0.17120000000E+03  0.17120000000E+03 0.  0.
         13    1    1    2    0    0  0.28666660854E+01 -0.14839500673E+02  0.86522475014E+02  0.87832672744E+02  0.10566000000E+00 0.  1.
        994    1    1    2    0    0 -0.54397388970E+01  0.11259386876E+02  0.18181910956E+01  0.17166569363E+03  0.17120000000E+03 0.  0.
        998    1    1    2    0    0  0.25730728116E+01  0.35801137964E+01  0.14116593302E+04  0.14117016336E+04  0.10000000000E+02 0.  1.
</event>
<event>
 5    1  0.9130022E-009  0.3783212E+03  0.7957747E-01  0.3458501E+00
         13   -1    0    0    0    0  0.00000000000E+00  0.00000000000E+00  0.14999999963E+04  0.15000000000E+04  0.10566000000E+00 0. -1.
        994   -1    0    0    0    0 -0.00000000000E+00 -0.00000000000E+00  0.11368683772E-12  0.17120000000E+03  0.17120000000E+03 0.  0.
         13    1    1    2    0    0  0.10096291055E+02 -0.95952948001E+01  0.16923531161E+02  0.21918527468E+02  0.10566000000E+00 0. -1.
        994    1    1    2    0    0 -0.11752124772E+02  0.15605051346E+02  0.62668990429E+01  0.17242489405E+03  0.17120000000E+03 0.  0.
        998    1    1    2    0    0  0.16558337163E+01 -0.60097565463E+01  0.14768095661E+04  0.14768565785E+04  0.10000000000E+02 0. -1.
</event>
<event>
 5    1  0.9130022E-009  0.3826953E+03  0.7957747E-01  0.3439506E+00
         13   -1    0    0    0    0  0.00000000000E+00  0.00000000000E+00  0.14999999963E+04  0.15000000000E+04  0.10566000000E+00 0. -1.
        994   -1    0    0    0    0 -0.00000000000E+00 -0.00000000000E+00  0.11368683772E-12  0.17120000000E+03  0.17120000000E+03 0.  0.
         13    1    1    2    0    0 -0.16895919617E+02  0.74925462141E+01  0.65976883834E+02  0.68516937416E+02  0.10566000000E+00 0. -1.
        994    1    1    2    0    0 -0.65402895939E+01 -0.30360377267E+01  0.29510024924E+01  0.17137719022E+03  0.17120000000E+03 0.  0.
        998    1    1    2    0    0  0.23436209210E+02 -0.44565084874E+01  0.14310721100E+04  0.14313058724E+04  0.10000000000E+02 0. -1.
</event>
<event>
 5    1  0.9130022E-009  0.3765954E+03  0.7957747E-01  0.3466118E+00
         13   -1    0    0    0    0  0.00000000000E+00  0.00000000000E+00  0.14999999963E+04  0.15000000000E+04  0.10566000000E+00 0.  1.
        994   -1    0    0    0    0 -0.00000000000E+00 -0.00000000000E+00  0.11368683772E-12  0.17120000000E+03  0.17120000000E+03 0.  0.
         13    1    1    2    0    0 -0.17936411908E+01 -0.60391552910E+02  0.28181558005E+03  0.28821934205E+03  0.10566000000E+00 0.  1.
        994    1    1    2    0    0 -0.20615193762E+02  0.48122951472E+02  0.15185234102E+02  0.17966868399E+03  0.17120000000E+03 0.  0.
        998    1    1    2    0    0  0.22408834953E+02  0.12268601438E+02  0.12029991821E+04  0.12033119740E+04  0.10000000000E+02 0.  1.
</event>
<event>
 5    1  0.9130022E-009  0.3694883E+03  0.7957747E-01  0.3498246E+00
         13   -1    0    0    0    0  0.00000000000E+00  0.00000000000E+00  0.14999999963E+04  0.15000000000E+04  0.10566000000E+00 0.  1.
        994   -1    0    0    0    0 -0.00000000000E+00 -0.00000000000E+00  0.11368683772E-12  0.17120000000E+03  0.17120000000E+03 0.  0.
         13    1    1    2    0    0 -0.49301553494E+02 -0.68354922673E+02  0.35114378758E+03  0.36111633770E+03  0.10566000000E+00 0.  1.
        994    1    1    2    0    0  0.33672502851E+01  0.68444310605E+02  0.25983285247E+02  0.18622710098E+03  0.17120000000E+03 0.  0.
        998    1    1    2    0    0  0.45934303209E+02 -0.89387931916E-01  0.11228729234E+04  0.11238565613E+04  0.10000000000E+02 0.  1.
</event>
<event>
 5    1  0.9130022E-009  0.3763946E+03  0.7957747E-01  0.3467009E+00
         13   -1    0    0    0    0  0.00000000000E+00  0.00000000000E+00  0.14999999963E+04  0.15000000000E+04  0.10566000000E+00 0.  1.
        994   -1    0    0    0    0 -0.00000000000E+00 -0.00000000000E+00  0.11368683772E-12  0.17120000000E+03  0.17120000000E+03 0.  0.
         13    1    1    2    0    0  0.27589049740E+02  0.17623313735E+02  0.89235196488E+02  0.95050872215E+02  0.10566000000E+00 0.  1.
        994    1    1    2    0    0 -0.64316655786E+01 -0.19934642478E+02  0.74501687709E+01  0.17263748523E+03  0.17120000000E+03 0.  0.
        998    1    1    2    0    0 -0.21157384161E+02  0.23113287425E+01  0.14033146310E+04  0.14035116426E+04  0.10000000000E+02 0.  1.
</event>
<event>
 5    1  0.9130022E-009  0.3835407E+03  0.7957747E-01  0.3435885E+00
         13   -1    0    0    0    0  0.00000000000E+00  0.00000000000E+00  0.14999999963E+04  0.15000000000E+04  0.10566000000E+00 0.  1.
        994   -1    0    0    0    0 -0.00000000000E+00 -0.00000000000E+00  0.11368683772E-12  0.17120000000E+03  0.17120000000E+03 0.  0.
         13    1    1    2    0    0  0.27579868730E+02 -0.11608150800E+02  0.16626025991E+03  0.16893159419E+03  0.10566000000E+00 0.  1.
        994    1    1    2    0    0 -0.21707800910E+02  0.36955614737E+02  0.84499961676E+01  0.17668556397E+03  0.17120000000E+03 0.  0.
        998    1    1    2    0    0 -0.58720678201E+01 -0.25347463937E+02  0.13252897402E+04  0.13255828418E+04  0.10000000000E+02 0.  1.
</event>
<event>
 5    1  0.9130022E-009  0.3862378E+03  0.7957747E-01  0.3424440E+00
         13   -1    0    0    0    0  0.00000000000E+00  0.00000000000E+00  0.14999999963E+04  0.15000000000E+04  0.10566000000E+00 0.  1.
        994   -1    0    0    0    0 -0.00000000000E+00 -0.00000000000E+00  0.11368683772E-12  0.17120000000E+03  0.17120000000E+03 0.  0.
         13    1    1    2    0    0  0.58157190183E+02  0.98617164215E+02  0.25798675788E+03  0.28224950355E+03  0.10566000000E+00 0.  1.
        994    1    1    2    0    0 -0.58628355394E+02 -0.10432051667E+03  0.75080308418E+02  0.22196068788E+03  0.17120000000E+03 0.  0.
        998    1    1    2    0    0  0.47116521107E+00  0.57033524534E+01  0.11669329300E+04  0.11669898086E+04  0.10000000000E+02 0.  1.
</event>
<event>
 5    1  0.9130022E-009  0.3826755E+03  0.7957747E-01  0.3439591E+00
         13   -1    0    0    0    0  0.00000000000E+00  0.00000000000E+00  0.14999999963E+04  0.15000000000E+04  0.10566000000E+00 0. -1.
        994   -1    0    0    0    0 -0.00000000000E+00 -0.00000000000E+00  0.11368683772E-12  0.17120000000E+03  0.17120000000E+03 0.  0.
         13    1    1    2    0    0  0.33664337881E+01 -0.20436257442E+02  0.87252080267E+02  0.89676698030E+02  0.10566000000E+00 0. -1.
        994    1    1    2    0    0 -0.14058971822E+00 -0.10510331287E+02  0.31548213485E+01  0.17155139092E+03  0.17120000000E+03 0.  0.
        998    1    1    2    0    0 -0.32258440699E+01  0.30946588728E+02  0.14095930947E+04  0.14099719110E+04  0.10000000000E+02 0. -1.
</event>
<event>
 5    1  0.9130022E-009  0.3840481E+03  0.7957747E-01  0.3433719E+00
         13   -1    0    0    0    0  0.00000000000E+00  0.00000000000E+00  0.14999999963E+04  0.15000000000E+04  0.10566000000E+00 0. -1.
        994   -1    0    0    0    0 -0.00000000000E+00 -0.00000000000E+00  0.11368683772E-12  0.17120000000E+03  0.17120000000E+03 0.  0.
         13    1    1    2    0    0  0.80455922164E+01 -0.78948667806E+01  0.29688634450E+02  0.31756678906E+02  0.10566000000E+00 0. -1.
        994    1    1    2    0    0 -0.12177740113E+01  0.89903722334E+01  0.23750621197E+01  0.17145667291E+03  0.17120000000E+03 0.  0.
        998    1    1    2    0    0 -0.68278182051E+01 -0.10955054528E+01  0.14679362997E+04  0.14679866482E+04  0.10000000000E+02 0. -1.
</event>
<event>
 5    1  0.9130022E-009  0.3770399E+03  0.7957747E-01  0.3464150E+00
         13   -1    0    0    0    0  0.00000000000E+00  0.00000000000E+00  0.14999999963E+04  0.15000000000E+04  0.10566000000E+00 0. -1.
        994   -1    0    0    0    0 -0.00000000000E+00 -0.00000000000E+00  0.11368683772E-12  0.17120000000E+03  0.17120000000E+03 0.  0.
         13    1    1    2    0    0 -0.16045168183E+02 -0.20537148602E+02  0.63486322447E+02  0.68627590636E+02  0.10566000000E+00 0. -1.
        994    1    1    2    0    0 -0.23590719618E+02  0.96642166845E+01  0.78321381315E+01  0.17326483060E+03  0.17120000000E+03 0.  0.
        998    1    1    2    0    0  0.39635887801E+02  0.10872931918E+02  0.14286815357E+04  0.14293075788E+04  0.10000000000E+02 0. -1.
</event>
<event>
 5    1  0.9130022E-009  0.3704864E+03  0.7957747E-01  0.3493658E+00
         13   -1    0    0    0    0  0.00000000000E+00  0.00000000000E+00  0.14999999963E+04  0.15000000000E+04  0.10566000000E+00 0.  1.
        994   -1    0    0    0    0 -0.00000000000E+00 -0.00000000000E+00  0.11368683772E-12  0.17120000000E+03  0.17120000000E+03 0.  0.
         13    1    1    2    0    0 -0.11828650383E+03  0.24086079761E+03  0.10790245240E+04  0.11118900824E+04  0.10566000000E+00 0.  1.
        994    1    1    2    0    0  0.92633542525E+02 -0.24320065681E+03  0.29050753796E+03  0.42594788682E+03  0.17120000000E+03 0.  0.
        998    1    1    2    0    0  0.25652961304E+02  0.23398591983E+01  0.13046793431E+03  0.13336203075E+03  0.10000000000E+02 0.  1.
</event>
<event>
 5    1  0.9130022E-009  0.3840237E+03  0.7957747E-01  0.3433823E+00
         13   -1    0    0    0    0  0.00000000000E+00  0.00000000000E+00  0.14999999963E+04  0.15000000000E+04  0.10566000000E+00 0. -1.
        994   -1    0    0    0    0 -0.00000000000E+00 -0.00000000000E+00  0.11368683772E-12  0.17120000000E+03  0.17120000000E+03 0.  0.
         13    1    1    2    0    0 -0.93655262530E+01  0.18946184954E+02  0.98874860378E+02  0.10110845754E+03  0.10566000000E+00 0. -1.
        994    1    1    2    0    0  0.11590961259E+02 -0.19079967340E+02  0.37615843873E+01  0.17269043127E+03  0.17120000000E+03 0.  0.
        998    1    1    2    0    0 -0.22254350061E+01  0.13378238509E+00  0.13973635515E+04  0.13974011112E+04  0.10000000000E+02 0. -1.
</event>
<event>
 5    1  0.9130022E-009  0.3843918E+03  0.7957747E-01  0.3432256E+00
         13   -1    0    0    0    0  0.00000000000E+00  0.00000000000E+00  0.14999999963E+04  0.15000000000E+04  0.10566000000E+00 0. -1.
        994   -1    0    0    0    0 -0.00000000000E+00 -0.00000000000E+00  0.11368683772E-12  0.17120000000E+03  0.17120000000E+03 0.  0.
         13    1    1    2    0    0 -0.11738421637E+02 -0.42581824673E+01  0.39158140708E+02  0.41101019552E+02  0.10566000000E+00 0. -1.
        994    1    1    2    0    0  0.12766591857E+02  0.24711037039E+01  0.24898031874E+01  0.17171118584E+03  0.17120000000E+03 0.  0.
        998    1    1    2    0    0 -0.10281702202E+01  0.17870787634E+01  0.14583520524E+04  0.14583877946E+04  0.10000000000E+02 0. -1.
</event>
<event>
 5    1  0.9130022E-009  0.3848353E+03  0.7957747E-01  0.3430371E+00
         13   -1    0    0    0    0  0.00000000000E+00  0.00000000000E+00  0.14999999963E+04  0.15000000000E+04  0.10566000000E+00 0.  1.
        994   -1    0    0    0    0 -0.00000000000E+00 -0.00000000000E+00  0.11368683772E-12  0.17120000000E+03  0.17120000000E+03 0.  0.
         13    1    1    2    0    0 -0.16718718474E+01 -0.12813278881E+02  0.54873382182E+02  0.56374413587E+02  0.10566000000E+00 0.  1.
        994    1    1    2    0    0 -0.78347520776E+01 -0.11149754930E+02  0.23231798214E+01  0.17175720520E+03  0.17120000000E+03 0.  0.
        998    1    1    2    0    0  0.95066239250E+01  0.23963033811E+02  0.14428034343E+04  0.14430683812E+04  0.10000000000E+02 0.  1.
</event>
<event>
 5    1  0.9130022E-009  0.3831987E+03  0.7957747E-01  0.3437348E+00
         13   -1    0    0    0    0  0.00000000000E+00  0.00000000000E+00  0.14999999963E+04  0.15000000000E+04  0.10566000000E+00 0. -1.
        994   -1    0    0    0    0 -0.00000000000E+00 -0.00000000000E+00  0.11368683772E-12  0.17120000000E+03  0.17120000000E+03 0.  0.
         13    1    1    2    0    0  0.62746267311E+01  0.86829758279E+01  0.21795025540E+02  0.24285784158E+02  0.10566000000E+00 0. -1.
        994    1    1    2    0    0 -0.41973404793E+01 -0.63232482037E+01  0.27176839636E+01  0.17138969322E+03  0.17120000000E+03 0.  0.
        998    1    1    2    0    0 -0.20772862518E+01 -0.23597276242E+01  0.14754872868E+04  0.14755245226E+04  0.10000000000E+02 0. -1.
</event>
<event>
 5    1  0.9130022E-009  0.3844190E+03  0.7957747E-01  0.3432140E+00
         13   -1    0    0    0    0  0.00000000000E+00  0.00000000000E+00  0.14999999963E+04  0.15000000000E+04  0.10566000000E+00 0.  1.
        994   -1    0    0    0    0 -0.00000000000E+00 -0.00000000000E+00  0.11368683772E-12  0.17120000000E+03  0.17120000000E+03 0.  0.
         13    1    1    2    0    0 -0.19637003280E+02  0.97621442174E+01  0.13144803103E+03  0.13326480174E+03  0.10566000000E+00 0.  1.
        994    1    1    2    0    0  0.82238608850E+01 -0.69428017406E+00  0.21433238036E+01  0.17141221587E+03  0.17120000000E+03 0.  0.
        998    1    1    2    0    0  0.11413142395E+02 -0.90678640433E+01  0.13664086414E+04  0.13665229824E+04  0.10000000000E+02 0.  1.
</event>
<event>
 5    1  0.9130022E-009  0.3851400E+03  0.7957747E-01  0.3429079E+00
         13   -1    0    0    0    0  0.00000000000E+00  0.00000000000E+00  0.14999999963E+04  0.15000000000E+04  0.10566000000E+00 0. -1.
        994   -1    0    0    0    0 -0.00000000000E+00 -0.00000000000E+00  0.11368683772E-12  0.17120000000E+03  0.17120000000E+03 0.  0.
         13    1    1    2    0    0  0.17387585843E+02 -0.68654178290E+01  0.10710787497E+03  0.10872704423E+03  0.10566000000E+00 0. -1.
        994    1    1    2    0    0 -0.15154332645E+02  0.90768248767E+01  0.25870495561E+01  0.17212836888E+03  0.17120000000E+03 0.  0.
        998    1    1    2    0    0 -0.22332531981E+01 -0.22114070478E+01  0.13903050718E+04  0.13903445869E+04  0.10000000000E+02 0. -1.
</event>
<event>
 5    1  0.9130022E-009  0.3863477E+03  0.7957747E-01  0.3423976E+00
         13   -1    0    0    0    0  0.00000000000E+00  0.00000000000E+00  0.14999999963E+04  0.15000000000E+04  0.10566000000E+00 0.  1.
        994   -1    0    0    0    0 -0.00000000000E+00 -0.00000000000E+00  0.11368683772E-12  0.17120000000E+03  0.17120000000E+03 0.  0.
         13    1    1    2    0    0 -0.47742434243E+01  0.88764224727E+01  0.57847810322E+02  0.58719371584E+02  0.10566000000E+00 0.  1.
        994    1    1    2    0    0 -0.90264935515E+01 -0.20489828541E+01  0.12430639878E+01  0.17145454536E+03  0.17120000000E+03 0.  0.
        998    1    1    2    0    0  0.13800736976E+02 -0.68274396185E+01  0.14409091220E+04  0.14410260831E+04  0.10000000000E+02 0.  1.
</event>
<event>
 5    1  0.9130022E-009  0.3833236E+03  0.7957747E-01  0.3436813E+00
         13   -1    0    0    0    0  0.00000000000E+00  0.00000000000E+00  0.14999999963E+04  0.15000000000E+04  0.10566000000E+00 0.  1.
        994   -1    0    0    0    0 -0.00000000000E+00 -0.00000000000E+00  0.11368683772E-12  0.17120000000E+03  0.17120000000E+03 0.  0.
         13    1    1    2    0    0 -0.19506377552E+02 -0.36012669239E+01  0.83903207998E+02  0.86216166495E+02  0.10566000000E+00 0.  1.
        994    1    1    2    0    0  0.42285769525E+01 -0.66394648018E+01  0.26696531531E+01  0.17140166395E+03  0.17120000000E+03 0.  0.
        998    1    1    2    0    0  0.15277800600E+02  0.10240731726E+02  0.14134271351E+04  0.14135821696E+04  0.10000000000E+02 0.  1.
</event>
<event>
 5    1  0.9130022E-009  0.3859827E+03  0.7957747E-01  0.3425515E+00
         13   -1    0    0    0    0  0.00000000000E+00  0.00000000000E+00  0.14999999963E+04  0.15000000000E+04  0.10566000000E+00 0.  1.
        994   -1    0    0    0    0 -0.00000000000E+00 -0.00000000000E+00  0.11368683772E-12  0.17120000000E+03  0.17120000000E+03 0.  0.
         13    1    1    2    0    0 -0.62939163790E+01  0.96558365952E+01  0.65082336339E+02  0.66095160421E+02  0.10566000000E+00 0.  1.
        994    1    1    2    0    0  0.19542151646E+02  0.18065475078E+02  0.34683064439E+01  0.17329087175E+03  0.17120000000E+03 0.  0.
        998    1    1    2    0    0 -0.13248235267E+02 -0.27721311673E+02  0.14314493535E+04  0.14318139678E+04  0.10000000000E+02 0.  1.
</event>
<event>
 5    1  0.9130022E-009  0.3860988E+03  0.7957747E-01  0.3425025E+00
         13   -1    0    0    0    0  0.00000000000E+00  0.00000000000E+00  0.14999999963E+04  0.15000000000E+04  0.10566000000E+00 0.  1.
        994   -1    0    0    0    0 -0.00000000000E+00 -0.00000000000E+00  0.11368683772E-12  0.17120000000E+03  0.17120000000E+03 0.  0.
         13    1    1    2    0    0  0.12848612063E+02  0.19771664921E+01  0.78611838353E+02  0.79679535092E+02  0.10566000000E+00 0.  1.
        994    1    1    2    0    0 -0.96788853903E+01  0.39524215009E+01  0.14438276807E+01  0.17152500429E+03  0.17120000000E+03 0.  0.
        998    1    1    2    0    0 -0.31697266731E+01 -0.59295879930E+01  0.14199443302E+04  0.14199954606E+04  0.10000000000E+02 0.  1.
</event>
<event>
 5    1  0.9130022E-009  0.3849615E+03  0.7957747E-01  0.3429835E+00
         13   -1    0    0    0    0  0.00000000000E+00  0.00000000000E+00  0.14999999963E+04  0.15000000000E+04  0.10566000000E+00 0. -1.
        994   -1    0    0    0    0 -0.00000000000E+00 -0.00000000000E+00  0.11368683772E-12  0.17120000000E+03  0.17120000000E+03 0.  0.
         13    1    1    2    0    0 -0.41093782539E+00 -0.12502872302E+02  0.46699054220E+02  0.48345666970E+02  0.10566000000E+00 0. -1.
        994    1    1    2    0    0  0.38176109550E+01  0.10863087746E+02  0.20854332972E+01  0.17159944598E+03  0.17120000000E+03 0.  0.
        998    1    1    2    0    0 -0.34066731296E+01  0.16397845557E+01  0.14512155088E+04  0.14512548870E+04  0.10000000000E+02 0. -1.
</event>
<event>
 5    1  0.9130022E-009  0.3770821E+03  0.7957747E-01  0.3463963E+00
         13   -1    0    0    0    0  0.00000000000E+00  0.00000000000E+00  0.14999999963E+04  0.15000000000E+04  0.10566000000E+00 0.  1.
        994   -1    0    0    0    0 -0.00000000000E+00 -0.00000000000E+00  0.11368683772E-12  0.17120000000E+03  0.17120000000E+03 0.  0.
         13    1    1    2    0    0 -0.29457049900E+02  0.13134788287E+02  0.83269711177E+02  0.89297796253E+02  0.10566000000E+00 0.  1.
        994    1    1    2    0    0  0.30910451951E+02 -0.30001440726E+02  0.11902531119E+02  0.17693686086E+03  0.17120000000E+03 0.  0.
        998    1    1    2    0    0 -0.14534020513E+01  0.16866652439E+02  0.14048277540E+04  0.14049653429E+04  0.10000000000E+02 0.  1.
</event>
<event>
 5    1  0.9130022E-009  0.3834598E+03  0.7957747E-01  0.3436231E+00
         13   -1    0    0    0    0  0.00000000000E+00  0.00000000000E+00  0.14999999963E+04  0.15000000000E+04  0.10566000000E+00 0.  1.
        994   -1    0    0    0    0 -0.00000000000E+00 -0.00000000000E+00  0.11368683772E-12  0.17120000000E+03  0.17120000000E+03 0.  0.
         13    1    1    2    0    0  0.11328633923E+02  0.72065595002E+00  0.26104343647E+02  0.28465860480E+02  0.10566000000E+00 0.  1.
        994    1    1    2    0    0 -0.78967446863E+01  0.28873531622E+01  0.26304519457E+01  0.17142652847E+03  0.17120000000E+03 0.  0.
        998    1    1    2    0    0 -0.34318892368E+01 -0.36080091123E+01  0.14712652007E+04  0.14713076111E+04  0.10000000000E+02 0.  1.
</event>
<event>
 5    1  0.9130022E-009  0.3693108E+03  0.7957747E-01  0.3499064E+00
         13   -1    0    0    0    0  0.00000000000E+00  0.00000000000E+00  0.14999999963E+04  0.15000000000E+04  0.10566000000E+00 0. -1.
        994   -1    0    0    0    0 -0.00000000000E+00 -0.00000000000E+00  0.11368683772E-12  0.17120000000E+03  0.17120000000E+03 0.  0.
         13    1    1    2    0    0 -0.16888083712E+02  0.83088306603E+02  0.27678138895E+03  0.28947680822E+03  0.10566000000E+00 0. -1.
        994    1    1    2    0    0  0.10848007448E+02 -0.82322241704E+02  0.35023241935E+02  0.19347014814E+03  0.17120000000E+03 0.  0.
        998    1    1    2    0    0  0.60400762635E+01 -0.76606489901E+00  0.11881953654E+04  0.11882530436E+04  0.10000000000E+02 0. -1.
</event>
<event>
 5    1  0.9130022E-009  0.3839207E+03  0.7957747E-01  0.3434263E+00
         13   -1    0    0    0    0  0.00000000000E+00  0.00000000000E+00  0.14999999963E+04  0.15000000000E+04  0.10566000000E+00 0. -1.
        994   -1    0    0    0    0 -0.00000000000E+00 -0.00000000000E+00  0.11368683772E-12  0.17120000000E+03  0.17120000000E+03 0.  0.
         13    1    1    2    0    0  0.14297208832E+02  0.10772782051E+01  0.46615886717E+02  0.48771126367E+02  0.10566000000E+00 0. -1.
        994    1    1    2    0    0 -0.10622606541E+02 -0.46926345786E+01  0.26121557834E+01  0.17161329770E+03  0.17120000000E+03 0.  0.
        998    1    1    2    0    0 -0.36746022911E+01  0.36153563734E+01  0.14507719538E+04  0.14508155759E+04  0.10000000000E+02 0.  0.
</event>
<event>
 5    1  0.9130022E-009  0.3816472E+03  0.7957747E-01  0.3444017E+00
         13   -1    0    0    0    0  0.00000000000E+00  0.00000000000E+00  0.14999999963E+04  0.15000000000E+04  0.10566000000E+00 0. -1.
        994   -1    0    0    0    0 -0.00000000000E+00 -0.00000000000E+00  0.11368683772E-12  0.17120000000E+03  0.17120000000E+03 0.  0.
         13    1    1    2    0    0  0.87121029529E+01  0.96954366609E+01  0.24405308480E+02  0.27668257552E+02  0.10566000000E+00 0. -1.
        994    1    1    2    0    0 -0.53875423009E+01 -0.76798635580E+01  0.35965987384E+01  0.17149455221E+03  0.17120000000E+03 0.  0.
        998    1    1    2    0    0 -0.33245606520E+01 -0.20155731029E+01  0.14719980891E+04  0.14720371902E+04  0.10000000000E+02 0. -1.
</event>
<event>
 5    1  0.9130022E-009  0.3984043E+03  0.7957747E-01  0.3374739E+00
         13   -1    0    0    0    0  0.00000000000E+00  0.00000000000E+00  0.14999999963E+04  0.15000000000E+04  0.10566000000E+00 0. -1.
        994   -1    0    0    0    0 -0.00000000000E+00 -0.00000000000E+00  0.11368683772E-12  0.17120000000E+03  0.17120000000E+03 0.  0.
         13    1    1    2    0    0 -0.26744139605E+01  0.16654795021E+02 -0.66525802867E+01  0.18132916912E+02  0.10566000000E+00 0. -1.
        994    1    1    2    0    0 -0.32458359727E+01 -0.14788167395E+02  0.27721866440E+02  0.17408953795E+03  0.17120000000E+03 0.  0.
        998    1    1    2    0    0  0.59202499331E+01 -0.18666276265E+01  0.14789307101E+04  0.14789775451E+04  0.10000000000E+02 0. -1.
</event>
<event>
 5    1  0.9130022E-009  0.3777293E+03  0.7957747E-01  0.3461106E+00
         13   -1    0    0    0    0  0.00000000000E+00  0.00000000000E+00  0.14999999963E+04  0.15000000000E+04  0.10566000000E+00 0.  1.
        994   -1    0    0    0    0 -0.00000000000E+00 -0.00000000000E+00  0.11368683772E-12  0.17120000000E+03  0.17120000000E+03 0.  0.
         13    1    1    2    0    0 -0.86267986512E+02 -0.14442945016E+03  0.48804091870E+03  0.51622280176E+03  0.10566000000E+00 0.  1.
        994    1    1    2    0    0  0.87225712916E+02  0.16397975900E+03  0.15214397130E+03  0.29488118685E+03  0.17120000000E+03 0.  0.
        998    1    1    2    0    0 -0.95772640385E+00 -0.19550308848E+02  0.85981510628E+03  0.86009601139E+03  0.10000000000E+02 0. -1.
</event>
<event>
 5    1  0.9130022E-009  0.3786515E+03  0.7957747E-01  0.3457051E+00
         13   -1    0    0    0    0  0.00000000000E+00  0.00000000000E+00  0.14999999963E+04  0.15000000000E+04  0.10566000000E+00 0. -1.
        994   -1    0    0    0    0 -0.00000000000E+00 -0.00000000000E+00  0.11368683772E-12  0.17120000000E+03  0.17120000000E+03 0.  0.
         13    1    1    2    0    0  0.96999626752E+01 -0.16764103528E+02  0.37190321648E+02  0.41931558894E+02  0.10566000000E+00 0. -1.
        994    1    1    2    0    0 -0.55711186793E+01  0.10371825740E+02  0.52809900853E+01  0.17168558760E+03  0.17120000000E+03 0.  0.
        998    1    1    2    0    0 -0.41288439958E+01  0.63922777879E+01  0.14575286845E+04  0.14575828535E+04  0.10000000000E+02 0. -1.
</event>
<event>
 5    1  0.9130022E-009  0.3770532E+03  0.7957747E-01  0.3464091E+00
         13   -1    0    0    0    0  0.00000000000E+00  0.00000000000E+00  0.14999999963E+04  0.15000000000E+04  0.10566000000E+00 0.  1.
        994   -1    0    0    0    0 -0.00000000000E+00 -0.00000000000E+00  0.11368683772E-12  0.17120000000E+03  0.17120000000E+03 0.  0.
         13    1    1    2    0    0  0.11683911280E+02  0.22828102783E+02  0.54854946402E+02  0.60553384450E+02  0.10566000000E+00 0.  1.
        994    1    1    2    0    0 -0.14320551960E+02 -0.19572476192E+02  0.76162006683E+01  0.17307688045E+03  0.17120000000E+03 0.  0.
        998    1    1    2    0    0  0.26366406799E+01 -0.32556265918E+01  0.14375288492E+04  0.14375697351E+04  0.10000000000E+02 0.  1.
</event>
<event>
 5    1  0.9130022E-009  0.3684767E+03  0.7957747E-01  0.3502921E+00
         13   -1    0    0    0    0  0.00000000000E+00  0.00000000000E+00  0.14999999963E+04  0.15000000000E+04  0.10566000000E+00 0.  1.
        994   -1    0    0    0    0 -0.00000000000E+00 -0.00000000000E+00  0.11368683772E-12  0.17120000000E+03  0.17120000000E+03 0.  0.
         13    1    1    2    0    0 -0.35129203271E+02 -0.12647271739E+03  0.51727697963E+03  0.53367114779E+03  0.10566000000E+00 0.  1.
        994    1    1    2    0    0  0.45443664047E+02  0.12586362554E+03  0.75267759994E+02  0.22995968023E+03  0.17120000000E+03 0.  0.
        998    1    1    2    0    0 -0.10314460776E+02  0.60909185160E+00  0.90745525666E+03  0.90756917198E+03  0.10000000000E+02 0.  1.
</event>
<event>
 5    1  0.9130022E-009  0.3756688E+03  0.7957747E-01  0.3470237E+00
         13   -1    0    0    0    0  0.00000000000E+00  0.00000000000E+00  0.14999999963E+04  0.15000000000E+04  0.10566000000E+00 0.  1.
        994   -1    0    0    0    0 -0.00000000000E+00 -0.00000000000E+00  0.11368683772E-12  0.17120000000E+03  0.17120000000E+03 0.  0.
         13    1    1    2    0    0  0.12508537924E+02 -0.21015408778E+02  0.44995790040E+02  0.51212725103E+02  0.10566000000E+00 0.  1.
        994    1    1    2    0    0 -0.12256761448E+01  0.15732647119E+02  0.71806897433E+01  0.17207562516E+03  0.17120000000E+03 0.  0.
        998    1    1    2    0    0 -0.11282861779E+02  0.52827616593E+01  0.14478235165E+04  0.14479116497E+04  0.10000000000E+02 0.  1.
</event>
<event>
 5    1  0.9130022E-009  0.3738200E+03  0.7957747E-01  0.3478517E+00
         13   -1    0    0    0    0  0.00000000000E+00  0.00000000000E+00  0.14999999963E+04  0.15000000000E+04  0.10566000000E+00 0. -1.
        994   -1    0    0    0    0 -0.00000000000E+00 -0.00000000000E+00  0.11368683772E-12  0.17120000000E+03  0.17120000000E+03 0.  0.
         13    1    1    2    0    0 -0.47056769094E+02  0.68614426463E+02  0.37473095448E+03  0.38385619501E+03  0.10566000000E+00 0. -1.
        994    1    1    2    0    0  0.48331883063E+02 -0.59422540354E+02  0.27581001892E+02  0.18957099168E+03  0.17120000000E+03 0.  0.
        998    1    1    2    0    0 -0.12751139691E+01 -0.91918861091E+01  0.10976880399E+04  0.10977728133E+04  0.10000000000E+02 0.  0.
</event>
<event>
 5    1  0.9130022E-009  0.3808351E+03  0.7957747E-01  0.3447530E+00
         13   -1    0    0    0    0  0.00000000000E+00  0.00000000000E+00  0.14999999963E+04  0.15000000000E+04  0.10566000000E+00 0.  1.
        994   -1    0    0    0    0 -0.00000000000E+00 -0.00000000000E+00  0.11368683772E-12  0.17120000000E+03  0.17120000000E+03 0.  0.
         13    1    1    2    0    0 -0.32342966529E+02 -0.20475132634E+02  0.20756962787E+03  0.21106979916E+03  0.10566000000E+00 0.  1.
        994    1    1    2    0    0  0.14383376689E+02  0.53866005057E+01  0.44990067506E+01  0.17194643949E+03  0.17120000000E+03 0.  0.
        998    1    1    2    0    0  0.17959589840E+02  0.15088532128E+02  0.12879313617E+04  0.12881837614E+04  0.10000000000E+02 0.  1.
</event>
<event>
 5    1  0.9130022E-009  0.3747701E+03  0.7957747E-01  0.3474252E+00
         13   -1    0    0    0    0  0.00000000000E+00  0.00000000000E+00  0.14999999963E+04  0.15000000000E+04  0.10566000000E+00 0.  1.
        994   -1    0    0    0    0 -0.00000000000E+00 -0.00000000000E+00  0.11368683772E-12  0.17120000000E+03  0.17120000000E+03 0.  0.
         13    1    1    2    0    0  0.21144893470E+02  0.21399426884E+02  0.68280021072E+02  0.74613768384E+02  0.10566000000E+00 0.  1.
        994    1    1    2    0    0  0.11181407811E+02 -0.12731507039E+02  0.77741670150E+01  0.17221205772E+03  0.17120000000E+03 0.  0.
        998    1    1    2    0    0 -0.32326301281E+02 -0.86679198450E+01  0.14239458082E+04  0.14243741739E+04  0.10000000000E+02 0.  1.
</event>
<event>
 5    1  0.9130022E-009  0.3796274E+03  0.7957747E-01  0.3452782E+00
         13   -1    0    0    0    0  0.00000000000E+00  0.00000000000E+00  0.14999999963E+04  0.15000000000E+04  0.10566000000E+00 0. -1.
        994   -1    0    0    0    0 -0.00000000000E+00 -0.00000000000E+00  0.11368683772E-12  0.17120000000E+03  0.17120000000E+03 0.  0.
         13    1    1    2    0    0  0.58713841940E+00  0.15482640495E+02  0.26845249991E+02  0.30995733567E+02  0.10566000000E+00 0. -1.
        994    1    1    2    0    0 -0.14280438495E+02  0.64068888293E+00  0.50055791783E+01  0.17186866273E+03  0.17120000000E+03 0.  0.
        998    1    1    2    0    0  0.13693300076E+02 -0.16123329378E+02  0.14681491671E+04  0.14683356037E+04  0.10000000000E+02 0. -1.
</event>
<event>
 5    1  0.9130022E-009  0.3828866E+03  0.7957747E-01  0.3438685E+00
         13   -1    0    0    0    0  0.00000000000E+00  0.00000000000E+00  0.14999999963E+04  0.15000000000E+04  0.10566000000E+00 0.  1.
        994   -1    0    0    0    0 -0.00000000000E+00 -0.00000000000E+00  0.11368683772E-12  0.17120000000E+03  0.17120000000E+03 0.  0.
         13    1    1    2    0    0  0.11580034774E+02  0.40496018555E+01  0.22785905785E+02  0.25878662002E+02  0.10566000000E+00 0.  1.
        994    1    1    2    0    0 -0.61241734061E+02 -0.11201440941E+02  0.15625575365E+02  0.18283768998E+03  0.17120000000E+03 0.  0.
        998    1    1    2    0    0  0.49661699288E+02  0.71518390851E+01  0.14615885151E+04  0.14624836480E+04  0.10000000000E+02 0.  1.
</event>
<event>
 5    1  0.9130022E-009  0.3821932E+03  0.7957747E-01  0.3441664E+00
         13   -1    0    0    0    0  0.00000000000E+00  0.00000000000E+00  0.14999999963E+04  0.15000000000E+04  0.10566000000E+00 0.  1.
        994   -1    0    0    0    0 -0.00000000000E+00 -0.00000000000E+00  0.11368683772E-12  0.17120000000E+03  0.17120000000E+03 0.  0.
         13    1    1    2    0    0  0.90295224473E+01 -0.56316382650E+01  0.17390193706E+02  0.20388173688E+02  0.10566000000E+00 0.  1.
        994    1    1    2    0    0 -0.95164709656E+01  0.22189624546E+01  0.33471050366E+01  0.17151131195E+03  0.17120000000E+03 0.  0.
        998    1    1    2    0    0  0.48694851831E+00  0.34126758104E+01  0.14792626975E+04  0.14793005144E+04  0.10000000000E+02 0.  1.
</event>
<event>
 5    1  0.9130022E-009  0.3788665E+03  0.7957747E-01  0.3456109E+00
         13   -1    0    0    0    0  0.00000000000E+00  0.00000000000E+00  0.14999999963E+04  0.15000000000E+04  0.10566000000E+00 0. -1.
        994   -1    0    0    0    0 -0.00000000000E+00 -0.00000000000E+00  0.11368683772E-12  0.17120000000E+03  0.17120000000E+03 0.  0.
         13    1    1    2    0    0  0.15084273997E+02 -0.95370211691E+01  0.31572728844E+02  0.36267595254E+02  0.10566000000E+00 0. -1.
        994    1    1    2    0    0 -0.21732773903E+02 -0.44480850671E+01  0.63593741256E+01  0.17274831565E+03  0.17120000000E+03 0.  0.
        998    1    1    2    0    0  0.66484999054E+01  0.13985106236E+02  0.14620678933E+04  0.14621840891E+04  0.10000000000E+02 0. -1.
</event>
<event>
 5    1  0.9130022E-009  0.3810118E+03  0.7957747E-01  0.3446765E+00
         13   -1    0    0    0    0  0.00000000000E+00  0.00000000000E+00  0.14999999963E+04  0.15000000000E+04  0.10566000000E+00 0. -1.
        994   -1    0    0    0    0 -0.00000000000E+00 -0.00000000000E+00  0.11368683772E-12  0.17120000000E+03  0.17120000000E+03 0.  0.
         13    1    1    2    0    0  0.11238223586E+01 -0.21774436699E+02  0.66062798702E+02  0.69567906441E+02  0.10566000000E+00 0. -1.
        994    1    1    2    0    0 -0.11555283160E+02  0.74765168173E+01  0.42546401867E+01  0.17180501982E+03  0.17120000000E+03 0.  0.
        998    1    1    2    0    0  0.10431460801E+02  0.14297919882E+02  0.14296825574E+04  0.14298270737E+04  0.10000000000E+02 0. -1.
</event>
<event>
 5    1  0.9130022E-009  0.3791647E+03  0.7957747E-01  0.3454804E+00
         13   -1    0    0    0    0  0.00000000000E+00  0.00000000000E+00  0.14999999963E+04  0.15000000000E+04  0.10566000000E+00 0. -1.
        994   -1    0    0    0    0 -0.00000000000E+00 -0.00000000000E+00  0.11368683772E-12  0.17120000000E+03  0.17120000000E+03 0.  0.
         13    1    1    2    0    0  0.32688224116E+01 -0.14392180834E+03  0.54281604935E+03  0.56158120224E+03  0.10566000000E+00 0. -1.
        994    1    1    2    0    0 -0.21593655569E+02  0.10765844308E+03  0.60829488643E+02  0.21228823099E+03  0.17120000000E+03 0.  0.
        998    1    1    2    0    0  0.18324833158E+02  0.36263365251E+02  0.89635445828E+03  0.89733056677E+03  0.10000000000E+02 0. -1.
</event>
<event>
 5    1  0.9130022E-009  0.3792779E+03  0.7957747E-01  0.3454309E+00
         13   -1    0    0    0    0  0.00000000000E+00  0.00000000000E+00  0.14999999963E+04  0.15000000000E+04  0.10566000000E+00 0. -1.
        994   -1    0    0    0    0 -0.00000000000E+00 -0.00000000000E+00  0.11368683772E-12  0.17120000000E+03  0.17120000000E+03 0.  0.
         13    1    1    2    0    0 -0.49397224739E+02  0.70386172619E+02  0.45079764366E+03  0.45892573015E+03  0.10566000000E+00 0. -1.
        994    1    1    2    0    0  0.55849051742E+02 -0.90005582144E+02  0.43063535396E+02  0.20587381931E+03  0.17120000000E+03 0.  0.
        998    1    1    2    0    0 -0.64518270030E+01  0.19619409525E+02  0.10061388172E+04  0.10064004505E+04  0.10000000000E+02 0.  1.
</event>
<event>
 5    1  0.9130022E-009  0.3777456E+03  0.7957747E-01  0.3461034E+00
         13   -1    0    0    0    0  0.00000000000E+00  0.00000000000E+00  0.14999999963E+04  0.15000000000E+04  0.10566000000E+00 0.  1.
        994   -1    0    0    0    0 -0.00000000000E+00 -0.00000000000E+00  0.11368683772E-12  0.17120000000E+03  0.17120000000E+03 0.  0.
         13    1    1    2    0    0  0.38293433521E+02 -0.18574964718E+01  0.15389398401E+03  0.15859762552E+03  0.10566000000E+00 0.  1.
        994    1    1    2    0    0 -0.28328031552E+01  0.14547315716E+02  0.60156442845E+01  0.17194556448E+03  0.17120000000E+03 0.  0.
        998    1    1    2    0    0 -0.35460630366E+02 -0.12689819244E+02  0.13400903680E+04  0.13406568100E+04  0.10000000000E+02 0.  1.
</event>
<event>
 5    1  0.9130022E-009  0.3698613E+03  0.7957747E-01  0.3496529E+00
         13   -1    0    0    0    0  0.00000000000E+00  0.00000000000E+00  0.14999999963E+04  0.15000000000E+04  0.10566000000E+00 0.  1.
        994   -1    0    0    0    0 -0.00000000000E+00 -0.00000000000E+00  0.11368683772E-12  0.17120000000E+03  0.17120000000E+03 0.  0.
         13    1    1    2    0    0 -0.13009746340E+02  0.88362501107E+02  0.30516220663E+03  0.31796409958E+03  0.10566000000E+00 0.  1.
        994    1    1    2    0    0  0.12172330788E+02 -0.79592964100E+02  0.33876956664E+02  0.19219857899E+03  0.17120000000E+03 0.  0.
        998    1    1    2    0    0  0.83741555267E+00 -0.87695370065E+01  0.11609608330E+04  0.11610373214E+04  0.10000000000E+02 0.  1.
</event>
<event>
 5    1  0.9130022E-009  0.3687869E+03  0.7957747E-01  0.3501485E+00
         13   -1    0    0    0    0  0.00000000000E+00  0.00000000000E+00  0.14999999963E+04  0.15000000000E+04  0.10566000000E+00 0. -1.
        994   -1    0    0    0    0 -0.00000000000E+00 -0.00000000000E+00  0.11368683772E-12  0.17120000000E+03  0.17120000000E+03 0.  0.
         13    1    1    2    0    0  0.52018518255E+02  0.60579716403E+01  0.12060147558E+03  0.13148137639E+03  0.10566000000E+00 0. -1.
        994    1    1    2    0    0 -0.57970543150E+02 -0.28127550548E+02  0.24461939362E+02  0.18455234881E+03  0.17120000000E+03 0.  0.
        998    1    1    2    0    0  0.59520248959E+01  0.22069578908E+02  0.13549365813E+04  0.13551662748E+04  0.10000000000E+02 0. -1.
</event>
<event>
 5    1  0.9130022E-009  0.3733339E+03  0.7957747E-01  0.3480708E+00
         13   -1    0    0    0    0  0.00000000000E+00  0.00000000000E+00  0.14999999963E+04  0.15000000000E+04  0.10566000000E+00 0. -1.
        994   -1    0    0    0    0 -0.00000000000E+00 -0.00000000000E+00  0.11368683772E-12  0.17120000000E+03  0.17120000000E+03 0.  0.
         13    1    1    2    0    0  0.14449269359E+02 -0.21981729284E+02  0.41506479563E+02  0.49140378683E+02  0.10566000000E+00 0. -1.
        994    1    1    2    0    0 -0.22973997803E+02  0.19890828085E+02  0.10700031432E+02  0.17420499502E+03  0.17120000000E+03 0.  0.
        998    1    1    2    0    0  0.85247284432E+01  0.20909011997E+01  0.14477934853E+04  0.14478546263E+04  0.10000000000E+02 0. -1.
</event>
<event>
 5    1  0.9130022E-009  0.3799258E+03  0.7957747E-01  0.3451482E+00
         13   -1    0    0    0    0  0.00000000000E+00  0.00000000000E+00  0.14999999963E+04  0.15000000000E+04  0.10566000000E+00 0. -1.
        994   -1    0    0    0    0 -0.00000000000E+00 -0.00000000000E+00  0.11368683772E-12  0.17120000000E+03  0.17120000000E+03 0.  0.
         13    1    1    2    0    0 -0.23297545818E+02 -0.21807329667E+02  0.12300321142E+03  0.12707531803E+03  0.10566000000E+00 0. -1.
        994    1    1    2    0    0  0.28330362312E+02 -0.64688604695E+01  0.69993846362E+01  0.17378977809E+03  0.17120000000E+03 0.  0.
        998    1    1    2    0    0 -0.50328164944E+01  0.28276190136E+02  0.13699974002E+04  0.13703349039E+04  0.10000000000E+02 0. -1.
</event>
<event>
 5    1  0.9130022E-009  0.3851104E+03  0.7957747E-01  0.3429204E+00
         13   -1    0    0    0    0  0.00000000000E+00  0.00000000000E+00  0.14999999963E+04  0.15000000000E+04  0.10566000000E+00 0.  1.
        994   -1    0    0    0    0 -0.00000000000E+00 -0.00000000000E+00  0.11368683772E-12  0.17120000000E+03  0.17120000000E+03 0.  0.
         13    1    1    2    0    0 -0.13105015279E+02 -0.10643124843E+02  0.92364643872E+02  0.93894920702E+02  0.10566000000E+00 0.  1.
        994    1    1    2    0    0  0.35129915794E+01  0.89961279777E+01  0.18820461483E+01  0.17148251668E+03  0.17120000000E+03 0.  0.
        998    1    1    2    0    0  0.95920236997E+01  0.16469968656E+01  0.14057533063E+04  0.14058225626E+04  0.10000000000E+02 0.  1.
</event>
<event>
 5    1  0.9130022E-009  0.3748160E+03  0.7957747E-01  0.3474046E+00
         13   -1    0    0    0    0  0.00000000000E+00  0.00000000000E+00  0.14999999963E+04  0.15000000000E+04  0.10566000000E+00 0. -1.
        994   -1    0    0    0    0 -0.00000000000E+00 -0.00000000000E+00  0.11368683772E-12  0.17120000000E+03  0.17120000000E+03 0.  0.
         13    1    1    2    0    0  0.25437706084E+02  0.10967503791E+03  0.35526701122E+03  0.37267995821E+03  0.10566000000E+00 0. -1.
        994    1    1    2    0    0 -0.30958891472E+02 -0.10506262594E+03  0.57498581625E+02  0.21121584983E+03  0.17120000000E+03 0.  0.
        998    1    1    2    0    0  0.55211853883E+01 -0.46124119694E+01  0.10872344034E+04  0.10873041920E+04  0.10000000000E+02 0. -1.
</event>
<event>
 5    1  0.9130022E-009  0.3823211E+03  0.7957747E-01  0.3441114E+00
         13   -1    0    0    0    0  0.00000000000E+00  0.00000000000E+00  0.14999999963E+04  0.15000000000E+04  0.10566000000E+00 0. -1.
        994   -1    0    0    0    0 -0.00000000000E+00 -0.00000000000E+00  0.11368683772E-12  0.17120000000E+03  0.17120000000E+03 0.  0.
         13    1    1    2    0    0  0.38427947400E+02  0.10419977943E+02  0.23275560359E+03  0.23613653942E+03  0.10566000000E+00 0. -1.
        994    1    1    2    0    0 -0.39500034765E+02  0.98019087679E+00  0.81626810428E+01  0.17588997380E+03  0.17120000000E+03 0.  0.
        998    1    1    2    0    0  0.10720873652E+01 -0.11400168820E+02  0.12590817116E+04  0.12591734868E+04  0.10000000000E+02 0. -1.
</event>
<event>
 5    1  0.9130022E-009  0.3740461E+03  0.7957747E-01  0.3477500E+00
         13   -1    0    0    0    0  0.00000000000E+00  0.00000000000E+00  0.14999999963E+04  0.15000000000E+04  0.10566000000E+00 0. -1.
        994   -1    0    0    0    0 -0.00000000000E+00 -0.00000000000E+00  0.11368683772E-12  0.17120000000E+03  0.17120000000E+03 0.  0.
         13    1    1    2    0    0  0.53169168444E+02  0.65329235912E+02  0.24670753144E+03  0.26069040406E+03  0.10566000000E+00 0. -1.
        994    1    1    2    0    0 -0.35841433777E+02 -0.55266770235E+02  0.28646058625E+02  0.18565845239E+03  0.17120000000E+03 0.  0.
        998    1    1    2    0    0 -0.17327734668E+02 -0.10062465677E+02  0.12246464062E+04  0.12248511436E+04  0.10000000000E+02 0. -1.
</event>
<event>
 5    1  0.9130022E-009  0.3808465E+03  0.7957747E-01  0.3447481E+00
         13   -1    0    0    0    0  0.00000000000E+00  0.00000000000E+00  0.14999999963E+04  0.15000000000E+04  0.10566000000E+00 0. -1.
        994   -1    0    0    0    0 -0.00000000000E+00 -0.00000000000E+00  0.11368683772E-12  0.17120000000E+03  0.17120000000E+03 0.  0.
         13    1    1    2    0    0  0.17943963839E+02  0.16264643823E+01  0.44930132102E+02  0.48408255075E+02  0.10566000000E+00 0. -1.
        994    1    1    2    0    0  0.48509352614E+01 -0.17043476629E+02  0.47539304172E+01  0.17218028785E+03  0.17120000000E+03 0.  0.
        998    1    1    2    0    0 -0.22794899100E+02  0.15417012247E+02  0.14503159338E+04  0.14506114571E+04  0.10000000000E+02 0. -1.
</event>
<event>
 5    1  0.9130022E-009  0.3843059E+03  0.7957747E-01  0.3432621E+00
         13   -1    0    0    0    0  0.00000000000E+00  0.00000000000E+00  0.14999999963E+04  0.15000000000E+04  0.10566000000E+00 0. -1.
        994   -1    0    0    0    0 -0.00000000000E+00 -0.00000000000E+00  0.11368683772E-12  0.17120000000E+03  0.17120000000E+03 0.  0.
         13    1    1    2    0    0  0.31912605350E+02 -0.18225714858E+03  0.11173362312E+04  0.11325530219E+04  0.10566000000E+00 0. -1.
        994    1    1    2    0    0 -0.30573323759E+02  0.18923161890E+03  0.13430176810E+03  0.28998230745E+03  0.17120000000E+03 0.  0.
        998    1    1    2    0    0 -0.13392815904E+01 -0.69744703183E+01  0.24836199693E+03  0.24866467065E+03  0.10000000000E+02 0.  1.
</event>
<event>
 5    1  0.9130022E-009  0.3859106E+03  0.7957747E-01  0.3425819E+00
         13   -1    0    0    0    0  0.00000000000E+00  0.00000000000E+00  0.14999999963E+04  0.15000000000E+04  0.10566000000E+00 0.  1.
        994   -1    0    0    0    0 -0.00000000000E+00 -0.00000000000E+00  0.11368683772E-12  0.17120000000E+03  0.17120000000E+03 0.  0.
         13    1    1    2    0    0  0.83612806875E+01 -0.61094165007E+01  0.45781299135E+02  0.46937985675E+02  0.10566000000E+00 0.  1.
        994    1    1    2    0    0 -0.87857578122E+01  0.81839709151E+00  0.14340357173E+01  0.17143323999E+03  0.17120000000E+03 0.  0.
        998    1    1    2    0    0  0.42447712467E+00  0.52910194092E+01  0.14527846614E+04  0.14528287743E+04  0.10000000000E+02 0.  1.
</event>
<event>
 5    1  0.9130022E-009  0.3759694E+03  0.7957747E-01  0.3468899E+00
         13   -1    0    0    0    0  0.00000000000E+00  0.00000000000E+00  0.14999999963E+04  0.15000000000E+04  0.10566000000E+00 0. -1.
        994   -1    0    0    0    0 -0.00000000000E+00 -0.00000000000E+00  0.11368683772E-12  0.17120000000E+03  0.17120000000E+03 0.  0.
         13    1    1    2    0    0 -0.20213224277E+02  0.53025287105E+01  0.30967778133E+02  0.37359144703E+02  0.10566000000E+00 0. -1.
        994    1    1    2    0    0  0.38299538217E+02  0.93536132234E+01  0.11466254560E+02  0.17605470656E+03  0.17120000000E+03 0.  0.
        998    1    1    2    0    0 -0.18086313940E+02 -0.14656141934E+02  0.14575659636E+04  0.14577861487E+04  0.10000000000E+02 0. -1.
</event>
<event>
 5    1  0.9130022E-009  0.3846369E+03  0.7957747E-01  0.3431214E+00
         13   -1    0    0    0    0  0.00000000000E+00  0.00000000000E+00  0.14999999963E+04  0.15000000000E+04  0.10566000000E+00 0.  1.
        994   -1    0    0    0    0 -0.00000000000E+00 -0.00000000000E+00  0.11368683772E-12  0.17120000000E+03  0.17120000000E+03 0.  0.
         13    1    1    2    0    0  0.19666377856E+02 -0.77993941687E+01  0.12229635738E+03  0.12411288072E+03  0.10566000000E+00 0.  1.
        994    1    1    2    0    0 -0.21459470994E+02 -0.13322794031E+02  0.39140088573E+01  0.17309755978E+03  0.17120000000E+03 0.  0.
        998    1    1    2    0    0  0.17930931385E+01  0.21122188200E+02  0.13737896300E+04  0.13739895595E+04  0.10000000000E+02 0.  1.
</event>
<event>
 5    1  0.9130022E-009  0.3845356E+03  0.7957747E-01  0.3431644E+00
         13   -1    0    0    0    0  0.00000000000E+00  0.00000000000E+00  0.14999999963E+04  0.15000000000E+04  0.10566000000E+00 0. -1.
        994   -1    0    0    0    0 -0.00000000000E+00 -0.00000000000E+00  0.11368683772E-12  0.17120000000E+03  0.17120000000E+03 0.  0.
         13    1    1    2    0    0 -0.15433634241E+02  0.16857074799E+01  0.63497864494E+02  0.65368407009E+02  0.10566000000E+00 0. -1.
        994    1    1    2    0    0  0.12539632651E+02 -0.48708054567E+01  0.24571521695E+01  0.17174529027E+03  0.17120000000E+03 0.  0.
        998    1    1    2    0    0  0.28940015907E+01  0.31850979767E+01  0.14340449796E+04  0.14340863027E+04  0.10000000000E+02 0. -1.
</event>
<event>
 5    1  0.9130022E-009  0.3816321E+03  0.7957747E-01  0.3444083E+00
         13   -1    0    0    0    0  0.00000000000E+00  0.00000000000E+00  0.14999999963E+04  0.15000000000E+04  0.10566000000E+00 0.  1.
        994   -1    0    0    0    0 -0.00000000000E+00 -0.00000000000E+00  0.11368683772E-12  0.17120000000E+03  0.17120000000E+03 0.  0.
         13    1    1    2    0    0  0.32979123977E+02 -0.18228447167E+01  0.15857569042E+03  0.16197902993E+03  0.10566000000E+00 0.  1.
        994    1    1    2    0    0 -0.26476713093E+02 -0.26982138658E+02  0.80777337404E+01  0.17550994822E+03  0.17120000000E+03 0.  0.
        998    1    1    2    0    0 -0.65024108839E+01  0.28804983375E+02  0.13333465721E+04  0.13337110218E+04  0.10000000000E+02 0.  1.
</event>
<event>
 5    1  0.9130022E-009  0.3729267E+03  0.7957747E-01  0.3482547E+00
         13   -1    0    0    0    0  0.00000000000E+00  0.00000000000E+00  0.14999999963E+04  0.15000000000E+04  0.10566000000E+00 0. -1.
        994   -1    0    0    0    0 -0.00000000000E+00 -0.00000000000E+00  0.11368683772E-12  0.17120000000E+03  0.17120000000E+03 0.  0.
         13    1    1    2    0    0 -0.93963408500E+02 -0.54855112431E+02  0.55672727805E+03  0.56725962203E+03  0.10566000000E+00 0. -1.
        994    1    1    2    0    0  0.69137596436E+02  0.70346999192E+02  0.41820860128E+02  0.20195824291E+03  0.17120000000E+03 0.  0.
        998    1    1    2    0    0  0.24825812064E+02 -0.15491886761E+02  0.90145185810E+03  0.90198213506E+03  0.10000000000E+02 0. -1.
</event>
<event>
 5    1  0.1108574E-008  0.3857126E+03  0.7957747E-01  0.3426655E+00
         13   -1    0    0    0    0  0.00000000000E+00  0.00000000000E+00  0.14999999963E+04  0.15000000000E+04  0.10566000000E+00 0.  1.
        994   -1    0    0    0    0 -0.00000000000E+00 -0.00000000000E+00  0.11368683772E-12  0.17120000000E+03  0.17120000000E+03 0.  0.
         13    1    1    2    0    0  0.13671292383E+02  0.77506507352E+01  0.92981604668E+02  0.94300407173E+02  0.10566000000E+00 0.  1.
        994    1    1    2    0    0 -0.17559231645E+02 -0.99633785836E+00  0.22922906606E+01  0.17211628018E+03  0.17120000000E+03 0.  0.
        998    1    1    2    0    0  0.38879392622E+01 -0.67543128768E+01  0.14047261009E+04  0.14047833127E+04  0.10000000000E+02 0.  1.
</event>
<event>
 5    1  0.9130022E-009  0.3858135E+03  0.7957747E-01  0.3426230E+00
         13   -1    0    0    0    0  0.00000000000E+00  0.00000000000E+00  0.14999999963E+04  0.15000000000E+04  0.10566000000E+00 0. -1.
        994   -1    0    0    0    0 -0.00000000000E+00 -0.00000000000E+00  0.11368683772E-12  0.17120000000E+03  0.17120000000E+03 0.  0.
         13    1    1    2    0    0 -0.95121984308E+01 -0.37154610229E+01  0.41242082773E+02  0.42487729112E+02  0.10566000000E+00 0. -1.
        994    1    1    2    0    0  0.13748714926E+02  0.19332473447E+01  0.18593327763E+01  0.17177212150E+03  0.17120000000E+03 0.  0.
        998    1    1    2    0    0 -0.42365164956E+01  0.17822136782E+01  0.14568985807E+04  0.14569401494E+04  0.10000000000E+02 0. -1.
</event>
<event>
 5    1  0.9130022E-009  0.3808200E+03  0.7957747E-01  0.3447596E+00
         13   -1    0    0    0    0  0.00000000000E+00  0.00000000000E+00  0.14999999963E+04  0.15000000000E+04  0.10566000000E+00 0.  1.
        994   -1    0    0    0    0 -0.00000000000E+00 -0.00000000000E+00  0.11368683772E-12  0.17120000000E+03  0.17120000000E+03 0.  0.
         13    1    1    2    0    0  0.10403855266E+02  0.24613361030E+01  0.13699984890E+02  0.17378122160E+02  0.10566000000E+00 0.  1.
        994    1    1    2    0    0 -0.99393930015E+01 -0.52310122568E+00  0.40501070345E+01  0.17153690138E+03  0.17120000000E+03 0.  0.
        998    1    1    2    0    0 -0.46446226409E+00 -0.19382348773E+01  0.14822499044E+04  0.14822849765E+04  0.10000000000E+02 0.  1.
</event>
<event>
 5    1  0.9130022E-009  0.3766429E+03  0.7957747E-01  0.3465908E+00
         13   -1    0    0    0    0  0.00000000000E+00  0.00000000000E+00  0.14999999963E+04  0.15000000000E+04  0.10566000000E+00 0.  1.
        994   -1    0    0    0    0 -0.00000000000E+00 -0.00000000000E+00  0.11368683772E-12  0.17120000000E+03  0.17120000000E+03 0.  0.
         13    1    1    2    0    0 -0.30177119644E+02 -0.21366051432E+02  0.13355094427E+03  0.13857500707E+03  0.10566000000E+00 0.  1.
        994    1    1    2    0    0  0.25005215392E+01 -0.14364789692E+02  0.65564837149E+01  0.17194483787E+03  0.17120000000E+03 0.  0.
        998    1    1    2    0    0  0.27676598105E+02  0.35730841124E+02  0.13598925683E+04  0.13606801551E+04  0.10000000000E+02 0.  1.
</event>
<event>
 5    1  0.9130022E-009  0.3749077E+03  0.7957747E-01  0.3473636E+00
         13   -1    0    0    0    0  0.00000000000E+00  0.00000000000E+00  0.14999999963E+04  0.15000000000E+04  0.10566000000E+00 0. -1.
        994   -1    0    0    0    0 -0.00000000000E+00 -0.00000000000E+00  0.11368683772E-12  0.17120000000E+03  0.17120000000E+03 0.  0.
         13    1    1    2    0    0  0.16816260990E+02  0.16511019856E+02  0.14687555348E+02  0.27769333022E+02  0.10566000000E+00 0. -1.
        994    1    1    2    0    0 -0.22523604354E+02 -0.11300705093E+01  0.15368900775E+02  0.17336156703E+03  0.17120000000E+03 0.  0.
        998    1    1    2    0    0  0.57073433643E+01 -0.15380949347E+02  0.14699435402E+04  0.14700690999E+04  0.10000000000E+02 0. -1.
</event>
<event>
 5    1  0.9130022E-009  0.3685649E+03  0.7957747E-01  0.3502512E+00
         13   -1    0    0    0    0  0.00000000000E+00  0.00000000000E+00  0.14999999963E+04  0.15000000000E+04  0.10566000000E+00 0.  1.
        994   -1    0    0    0    0 -0.00000000000E+00 -0.00000000000E+00  0.11368683772E-12  0.17120000000E+03  0.17120000000E+03 0.  0.
         13    1    1    2    0    0 -0.26854301963E+02 -0.61582170162E+01  0.33505697460E+02  0.43378797783E+02  0.10566000000E+00 0.  1.
        994    1    1    2    0    0  0.16396305836E+02 -0.41330310813E+01  0.11177147325E+02  0.17239573490E+03  0.17120000000E+03 0.  0.
        998    1    1    2    0    0  0.10457996127E+02  0.10291248097E+02  0.14553171515E+04  0.14554254673E+04  0.10000000000E+02 0.  1.
</event>
<event>
 5    1  0.9130022E-009  0.3852721E+03  0.7957747E-01  0.3428519E+00
         13   -1    0    0    0    0  0.00000000000E+00  0.00000000000E+00  0.14999999963E+04  0.15000000000E+04  0.10566000000E+00 0.  1.
        994   -1    0    0    0    0 -0.00000000000E+00 -0.00000000000E+00  0.11368683772E-12  0.17120000000E+03  0.17120000000E+03 0.  0.
         13    1    1    2    0    0 -0.93136735478E+01 -0.12377537898E+02  0.80828559385E+02  0.82299545173E+02  0.10566000000E+00 0.  1.
        994    1    1    2    0    0  0.34421877675E+01  0.93087211605E+01  0.18188237854E+01  0.17149708180E+03  0.17120000000E+03 0.  0.
        998    1    1    2    0    0  0.58714857803E+01  0.30688167373E+01  0.14173526131E+04  0.14174033730E+04  0.10000000000E+02 0.  1.
</event>
<event>
 5    1  0.9130022E-009  0.3768991E+03  0.7957747E-01  0.3464773E+00
         13   -1    0    0    0    0  0.00000000000E+00  0.00000000000E+00  0.14999999963E+04  0.15000000000E+04  0.10566000000E+00 0. -1.
        994   -1    0    0    0    0 -0.00000000000E+00 -0.00000000000E+00  0.11368683772E-12  0.17120000000E+03  0.17120000000E+03 0.  0.
         13    1    1    2    0    0  0.12019974777E+03 -0.24317438227E+02  0.67735177598E+03  0.68836382586E+03  0.10566000000E+00 0. -1.
        994    1    1    2    0    0 -0.12314055566E+03  0.15383846450E+02  0.59629301105E+02  0.21969377035E+03  0.17120000000E+03 0.  0.
        998    1    1    2    0    0  0.29408078953E+01  0.89335917767E+01  0.76301891920E+03  0.76314240379E+03  0.10000000000E+02 0.  1.
</event>
<event>
 5    1  0.9130022E-009  0.3845826E+03  0.7957747E-01  0.3431445E+00
         13   -1    0    0    0    0  0.00000000000E+00  0.00000000000E+00  0.14999999963E+04  0.15000000000E+04  0.10566000000E+00 0. -1.
        994   -1    0    0    0    0 -0.00000000000E+00 -0.00000000000E+00  0.11368683772E-12  0.17120000000E+03  0.17120000000E+03 0.  0.
         13    1    1    2    0    0  0.12237401934E+02 -0.10345331579E+02  0.91590835618E+02  0.92982107015E+02  0.10566000000E+00 0. -1.
        994    1    1    2    0    0  0.17427950174E+02 -0.19691303022E+02  0.41179633806E+01  0.17325668381E+03  0.17120000000E+03 0.  0.
        998    1    1    2    0    0 -0.29665352109E+02  0.30036634601E+02  0.14042911973E+04  0.14049612092E+04  0.10000000000E+02 0. -1.
</event>
<event>
 5    1  0.9130022E-009  0.3846408E+03  0.7957747E-01  0.3431197E+00
         13   -1    0    0    0    0  0.00000000000E+00  0.00000000000E+00  0.14999999963E+04  0.15000000000E+04  0.10566000000E+00 0. -1.
        994   -1    0    0    0    0 -0.00000000000E+00 -0.00000000000E+00  0.11368683772E-12  0.17120000000E+03  0.17120000000E+03 0.  0.
         13    1    1    2    0    0 -0.32885746484E+02 -0.13826635936E+03  0.82168284763E+03  0.83388354805E+03  0.10566000000E+00 0. -1.
        994    1    1    2    0    0  0.41263129628E+02  0.17477021534E+03  0.11638321489E+03  0.27404701557E+03  0.17120000000E+03 0.  0.
        998    1    1    2    0    0 -0.83773831436E+01 -0.36503855980E+02  0.56193393376E+03  0.56326943638E+03  0.10000000000E+02 0.  1.
</event>
<event>
 5    1  0.9130022E-009  0.3839848E+03  0.7957747E-01  0.3433989E+00
         13   -1    0    0    0    0  0.00000000000E+00  0.00000000000E+00  0.14999999963E+04  0.15000000000E+04  0.10566000000E+00 0.  1.
        994   -1    0    0    0    0 -0.00000000000E+00 -0.00000000000E+00  0.11368683772E-12  0.17120000000E+03  0.17120000000E+03 0.  0.
         13    1    1    2    0    0  0.16986647490E+02 -0.15122148111E+02  0.11343138222E+03  0.11568887238E+03  0.10566000000E+00 0.  1.
        994    1    1    2    0    0 -0.19497924153E+02  0.12035982110E+02  0.38692918183E+01  0.17276992021E+03  0.17120000000E+03 0.  0.
        998    1    1    2    0    0  0.25112766632E+01  0.30861660009E+01  0.13826993222E+04  0.13827412074E+04  0.10000000000E+02 0.  1.
</event>
<event>
 5    1  0.9328982E-009  0.3856653E+03  0.7957747E-01  0.3426855E+00
         13   -1    0    0    0    0  0.00000000000E+00  0.00000000000E+00  0.14999999963E+04  0.15000000000E+04  0.10566000000E+00 0.  1.
        994   -1    0    0    0    0 -0.00000000000E+00 -0.00000000000E+00  0.11368683772E-12  0.17120000000E+03  0.17120000000E+03 0.  0.
         13    1    1    2    0    0  0.13192102753E+00  0.13342120302E+02  0.66222874714E+02  0.67553755459E+02  0.10566000000E+00 0.  1.
        994    1    1    2    0    0  0.61720814753E+01 -0.14655188618E+02  0.21304141707E+01  0.17195013175E+03  0.17120000000E+03 0.  0.
        998    1    1    2    0    0 -0.63040025028E+01  0.13130683167E+01  0.14316467074E+04  0.14316961128E+04  0.10000000000E+02 0.  1.
</event>
<event>
 5    1  0.9130022E-009  0.3852546E+03  0.7957747E-01  0.3428593E+00
         13   -1    0    0    0    0  0.00000000000E+00  0.00000000000E+00  0.14999999963E+04  0.15000000000E+04  0.10566000000E+00 0. -1.
        994   -1    0    0    0    0 -0.00000000000E+00 -0.00000000000E+00  0.11368683772E-12  0.17120000000E+03  0.17120000000E+03 0.  0.
         13    1    1    2    0    0 -0.13775879770E+01  0.16121522828E+02  0.85538118660E+02  0.87055052438E+02  0.10566000000E+00 0. -1.
        994    1    1    2    0    0 -0.11458092962E+01 -0.13319705706E+02  0.20912890354E+01  0.17173392480E+03  0.17120000000E+03 0.  0.
        998    1    1    2    0    0  0.25233972732E+01 -0.28018171223E+01  0.14123705886E+04  0.14124110228E+04  0.10000000000E+02 0. -1.
</event>
<event>
 5    1  0.9130022E-009  0.3701129E+03  0.7957747E-01  0.3495372E+00
         13   -1    0    0    0    0  0.00000000000E+00  0.00000000000E+00  0.14999999963E+04  0.15000000000E+04  0.10566000000E+00 0.  1.
        994   -1    0    0    0    0 -0.00000000000E+00 -0.00000000000E+00  0.11368683772E-12  0.17120000000E+03  0.17120000000E+03 0.  0.
         13    1    1    2    0    0  0.27810056593E+02  0.15732952360E+02  0.41097130207E+02  0.52056798912E+02  0.10566000000E+00 0.  1.
        994    1    1    2    0    0 -0.26018827961E+02 -0.17307490621E+02  0.14421405084E+02  0.17462515731E+03  0.17120000000E+03 0.  0.
        998    1    1    2    0    0 -0.17912286321E+01  0.15745382606E+01  0.14444814610E+04  0.14445180438E+04  0.10000000000E+02 0.  0.
</event>
<event>
 5    1  0.9130022E-009  0.3833802E+03  0.7957747E-01  0.3436571E+00
         13   -1    0    0    0    0  0.00000000000E+00  0.00000000000E+00  0.14999999963E+04  0.15000000000E+04  0.10566000000E+00 0. -1.
        994   -1    0    0    0    0 -0.00000000000E+00 -0.00000000000E+00  0.11368683772E-12  0.17120000000E+03  0.17120000000E+03 0.  0.
         13    1    1    2    0    0 -0.13750691339E+02  0.13487505776E+02  0.72003234814E+02  0.74535034125E+02  0.10566000000E+00 0. -1.
        994    1    1    2    0    0  0.18534552090E+02 -0.11053419221E+02  0.39776286331E+01  0.17260060610E+03  0.17120000000E+03 0.  0.
        998    1    1    2    0    0 -0.47838607502E+01 -0.24340865550E+01  0.14240191328E+04  0.14240643598E+04  0.10000000000E+02 0. -1.
</event>
<event>
 5    1  0.9130022E-009  0.3695350E+03  0.7957747E-01  0.3498031E+00
         13   -1    0    0    0    0  0.00000000000E+00  0.00000000000E+00  0.14999999963E+04  0.15000000000E+04  0.10566000000E+00 0. -1.
        994   -1    0    0    0    0 -0.00000000000E+00 -0.00000000000E+00  0.11368683772E-12  0.17120000000E+03  0.17120000000E+03 0.  0.
         13    1    1    2    0    0 -0.42795939102E+01  0.17904092937E+02  0.14308132519E+02  0.23315344478E+02  0.10566000000E+00 0. -1.
        994    1    1    2    0    0 -0.20657154502E+02  0.32461144943E+01  0.11028093390E+02  0.17282451833E+03  0.17120000000E+03 0.  0.
        998    1    1    2    0    0  0.24936748412E+02 -0.21150207431E+02  0.14746637704E+04  0.14750601372E+04  0.10000000000E+02 0. -1.
</event>
<event>
 5    1  0.9130022E-009  0.3772123E+03  0.7957747E-01  0.3463387E+00
         13   -1    0    0    0    0  0.00000000000E+00  0.00000000000E+00  0.14999999963E+04  0.15000000000E+04  0.10566000000E+00 0.  1.
        994   -1    0    0    0    0 -0.00000000000E+00 -0.00000000000E+00  0.11368683772E-12  0.17120000000E+03  0.17120000000E+03 0.  0.
         13    1    1    2    0    0 -0.24199124756E+02  0.56165340523E+01  0.52891602611E+02  0.58435228112E+02  0.10566000000E+00 0.  1.
        994    1    1    2    0    0  0.16550523782E+02 -0.14853007339E+02  0.72173505769E+01  0.17278906740E+03  0.17120000000E+03 0.  0.
        998    1    1    2    0    0  0.76486009739E+01  0.92364732870E+01  0.14398910431E+04  0.14399757045E+04  0.10000000000E+02 0.  1.
</event>
<event>
 5    1  0.9130022E-009  0.3757817E+03  0.7957747E-01  0.3469734E+00
         13   -1    0    0    0    0  0.00000000000E+00  0.00000000000E+00  0.14999999963E+04  0.15000000000E+04  0.10566000000E+00 0.  1.
        994   -1    0    0    0    0 -0.00000000000E+00 -0.00000000000E+00  0.11368683772E-12  0.17120000000E+03  0.17120000000E+03 0.  0.
         13    1    1    2    0    0 -0.82296048331E+02  0.16579541221E+02  0.23001890848E+03  0.24485961320E+03  0.10566000000E+00 0.  1.
        994    1    1    2    0    0  0.68768643611E+02  0.10136456153E+02  0.31478997087E+02  0.18743596599E+03  0.17120000000E+03 0.  0.
        998    1    1    2    0    0  0.13527404720E+02 -0.26715997374E+02  0.12385020907E+04  0.12389044208E+04  0.10000000000E+02 0.  1.
</event>
<event>
 5    1  0.9130022E-009  0.3847290E+03  0.7957747E-01  0.3430822E+00
         13   -1    0    0    0    0  0.00000000000E+00  0.00000000000E+00  0.14999999963E+04  0.15000000000E+04  0.10566000000E+00 0.  1.
        994   -1    0    0    0    0 -0.00000000000E+00 -0.00000000000E+00  0.11368683772E-12  0.17120000000E+03  0.17120000000E+03 0.  0.
         13    1    1    2    0    0  0.13528436115E+02  0.15307373430E+02  0.10434927119E+03  0.10633022067E+03  0.10566000000E+00 0.  1.
        994    1    1    2    0    0 -0.10296217863E+02 -0.30276047905E+02  0.51381057219E+01  0.17423688275E+03  0.17120000000E+03 0.  0.
        998    1    1    2    0    0 -0.32322182526E+01  0.14968674475E+02  0.13905126194E+04  0.13906328966E+04  0.10000000000E+02 0.  1.
</event>
<event>
 5    1  0.9130022E-009  0.3744329E+03  0.7957747E-01  0.3475763E+00
         13   -1    0    0    0    0  0.00000000000E+00  0.00000000000E+00  0.14999999963E+04  0.15000000000E+04  0.10566000000E+00 0.  1.
        994   -1    0    0    0    0 -0.00000000000E+00 -0.00000000000E+00  0.11368683772E-12  0.17120000000E+03  0.17120000000E+03 0.  0.
         13    1    1    2    0    0  0.24478376300E+02  0.27027577943E+02  0.11330260832E+03  0.11902593453E+03  0.10566000000E+00 0.  1.
        994    1    1    2    0    0  0.21048696511E+02  0.10473789463E+02  0.88550259341E+01  0.17303352096E+03  0.17120000000E+03 0.  0.
        998    1    1    2    0    0 -0.45527072811E+02 -0.37501367406E+02  0.13778423620E+04  0.13791405445E+04  0.10000000000E+02 0.  1.
</event>
<event>
 5    1  0.9130022E-009  0.3756500E+03  0.7957747E-01  0.3470321E+00
         13   -1    0    0    0    0  0.00000000000E+00  0.00000000000E+00  0.14999999963E+04  0.15000000000E+04  0.10566000000E+00 0.  1.
        994   -1    0    0    0    0 -0.00000000000E+00 -0.00000000000E+00  0.11368683772E-12  0.17120000000E+03  0.17120000000E+03 0.  0.
         13    1    1    2    0    0 -0.50950952574E+02  0.26353988486E+02  0.33667612347E+03  0.34152797185E+03  0.10566000000E+00 0.  1.
        994    1    1    2    0    0 -0.39852887024E+01 -0.12232763845E+02  0.69069187338E+01  0.17182161844E+03  0.17120000000E+03 0.  0.
        998    1    1    2    0    0  0.54936241276E+02 -0.14121224642E+02  0.11564169541E+04  0.11578504097E+04  0.10000000000E+02 0.  1.
</event>
<event>
 5    1  0.9130022E-009  0.3846752E+03  0.7957747E-01  0.3431051E+00
         13   -1    0    0    0    0  0.00000000000E+00  0.00000000000E+00  0.14999999963E+04  0.15000000000E+04  0.10566000000E+00 0.  1.
        994   -1    0    0    0    0 -0.00000000000E+00 -0.00000000000E+00  0.11368683772E-12  0.17120000000E+03  0.17120000000E+03 0.  0.
         13    1    1    2    0    0  0.10907358320E+02 -0.39092721975E+01  0.37301464158E+02  0.39059739720E+02  0.10566000000E+00 0.  1.
        994    1    1    2    0    0 -0.74553953045E+01  0.35414759988E+00  0.19749080117E+01  0.17137400212E+03  0.17120000000E+03 0.  0.
        998    1    1    2    0    0 -0.34519630155E+01  0.35551245976E+01  0.14607236241E+04  0.14607662582E+04  0.10000000000E+02 0.  1.
</event>
<event>
 5    1  0.9130022E-009  0.3798134E+03  0.7957747E-01  0.3451971E+00
         13   -1    0    0    0    0  0.00000000000E+00  0.00000000000E+00  0.14999999963E+04  0.15000000000E+04  0.10566000000E+00 0.  1.
        994   -1    0    0    0    0 -0.00000000000E+00 -0.00000000000E+00  0.11368683772E-12  0.17120000000E+03  0.17120000000E+03 0.  0.
         13    1    1    2    0    0  0.37955243451E+02  0.14650565766E+02  0.23908860964E+03  0.24252549146E+03  0.10566000000E+00 0.  1.
        994    1    1    2    0    0  0.46940221848E+01 -0.92423571377E+01  0.45868644890E+01  0.17157486510E+03  0.17120000000E+03 0.  0.
        998    1    1    2    0    0 -0.42649265636E+02 -0.54082086287E+01  0.12563245221E+04  0.12570996434E+04  0.10000000000E+02 0.  1.
</event>
<event>
 5    1  0.9130022E-009  0.3833010E+03  0.7957747E-01  0.3436910E+00
         13   -1    0    0    0    0  0.00000000000E+00  0.00000000000E+00  0.14999999963E+04  0.15000000000E+04  0.10566000000E+00 0.  1.
        994   -1    0    0    0    0 -0.00000000000E+00 -0.00000000000E+00  0.11368683772E-12  0.17120000000E+03  0.17120000000E+03 0.  0.
         13    1    1    2    0    0  0.21396667988E+02  0.83985040085E+01  0.10978648299E+03  0.11216699729E+03  0.10566000000E+00 0.  1.
        994    1    1    2    0    0 -0.11055426390E+02  0.31039260002E+01  0.29121484373E+01  0.17160937450E+03  0.17120000000E+03 0.  0.
        998    1    1    2    0    0 -0.10341241598E+02 -0.11502430009E+02  0.13873013649E+04  0.13874236282E+04  0.10000000000E+02 0.  1.
</event>
<event>
 5    1  0.9130022E-009  0.3751674E+03  0.7957747E-01  0.3472474E+00
         13   -1    0    0    0    0  0.00000000000E+00  0.00000000000E+00  0.14999999963E+04  0.15000000000E+04  0.10566000000E+00 0. -1.
        994   -1    0    0    0    0 -0.00000000000E+00 -0.00000000000E+00  0.11368683772E-12  0.17120000000E+03  0.17120000000E+03 0.  0.
         13    1    1    2    0    0  0.25109087798E+02  0.17803589773E+02  0.68756568241E+02  0.75332004747E+02  0.10566000000E+00 0. -1.
        994    1    1    2    0    0 -0.22440005690E+02 -0.66536817373E+01  0.84561035474E+01  0.17299933822E+03  0.17120000000E+03 0.  0.
        998    1    1    2    0    0 -0.26690821073E+01 -0.11149908036E+02  0.14227873245E+04  0.14228686570E+04  0.10000000000E+02 0. -1.
</event>
<event>
 5    1  0.9130022E-009  0.3827868E+03  0.7957747E-01  0.3439113E+00
         13   -1    0    0    0    0  0.00000000000E+00  0.00000000000E+00  0.14999999963E+04  0.15000000000E+04  0.10566000000E+00 0.  1.
        994   -1    0    0    0    0 -0.00000000000E+00 -0.00000000000E+00  0.11368683772E-12  0.17120000000E+03  0.17120000000E+03 0.  0.
         13    1    1    2    0    0 -0.15653039776E+02  0.60821385438E+00  0.44803573023E+02  0.47463237331E+02  0.10566000000E+00 0.  1.
        994    1    1    2    0    0  0.63924351772E+01  0.29601935293E+01  0.28973654568E+01  0.17136936920E+03  0.17120000000E+03 0.  0.
        998    1    1    2    0    0  0.92606045987E+01 -0.35684073837E+01  0.14522990578E+04  0.14523673935E+04  0.10000000000E+02 0.  1.
</event>
<event>
 5    1  0.9130022E-009  0.3847099E+03  0.7957747E-01  0.3430903E+00
         13   -1    0    0    0    0  0.00000000000E+00  0.00000000000E+00  0.14999999963E+04  0.15000000000E+04  0.10566000000E+00 0.  1.
        994   -1    0    0    0    0 -0.00000000000E+00 -0.00000000000E+00  0.11368683772E-12  0.17120000000E+03  0.17120000000E+03 0.  0.
         13    1    1    2    0    0 -0.17028444905E+02  0.13779985932E+02  0.12680922906E+03  0.12868740299E+03  0.10566000000E+00 0.  1.
        994    1    1    2    0    0  0.14766021773E+02 -0.15271488459E+02  0.32610473400E+01  0.17254369936E+03  0.17120000000E+03 0.  0.
        998    1    1    2    0    0  0.22624231326E+01  0.14915025263E+01  0.13699297199E+04  0.13699688977E+04  0.10000000000E+02 0.  0.
</event>
<event>
 5    1  0.9130022E-009  0.3807838E+03  0.7957747E-01  0.3447753E+00
         13   -1    0    0    0    0  0.00000000000E+00  0.00000000000E+00  0.14999999963E+04  0.15000000000E+04  0.10566000000E+00 0. -1.
        994   -1    0    0    0    0 -0.00000000000E+00 -0.00000000000E+00  0.11368683772E-12  0.17120000000E+03  0.17120000000E+03 0.  0.
         13    1    1    2    0    0 -0.75716553296E+01 -0.96424198609E+01  0.18230320908E+02  0.21969569628E+02  0.10566000000E+00 0. -1.
        994    1    1    2    0    0  0.10462667699E+02  0.11084542443E+02  0.45130723248E+01  0.17193644849E+03  0.17120000000E+03 0.  0.
        998    1    1    2    0    0 -0.28910123689E+01 -0.14421225820E+01  0.14772566030E+04  0.14772939819E+04  0.10000000000E+02 0. -1.
</event>
<event>
 5    1  0.9130022E-009  0.3848337E+03  0.7957747E-01  0.3430378E+00
         13   -1    0    0    0    0  0.00000000000E+00  0.00000000000E+00  0.14999999963E+04  0.15000000000E+04  0.10566000000E+00 0.  1.
        994   -1    0    0    0    0 -0.00000000000E+00 -0.00000000000E+00  0.11368683772E-12  0.17120000000E+03  0.17120000000E+03 0.  0.
         13    1    1    2    0    0 -0.24713685346E+02  0.20429327384E+02  0.18125204738E+03  0.18406639972E+03  0.10566000000E+00 0.  1.
        994    1    1    2    0    0  0.39150934683E+02 -0.67860264748E+02  0.22176432723E+02  0.18957596205E+03  0.17120000000E+03 0.  0.
        998    1    1    2    0    0 -0.14437249337E+02  0.47430937365E+02  0.12965715162E+04  0.12975576382E+04  0.10000000000E+02 0.  1.
</event>
<event>
 5    1  0.9130022E-009  0.3826113E+03  0.7957747E-01  0.3439867E+00
         13   -1    0    0    0    0  0.00000000000E+00  0.00000000000E+00  0.14999999963E+04  0.15000000000E+04  0.10566000000E+00 0. -1.
        994   -1    0    0    0    0 -0.00000000000E+00 -0.00000000000E+00  0.11368683772E-12  0.17120000000E+03  0.17120000000E+03 0.  0.
         13    1    1    2    0    0  0.12630309607E+02 -0.94240356825E+01  0.42023942216E+02  0.44881622661E+02  0.10566000000E+00 0. -1.
        994    1    1    2    0    0 -0.13870802427E+02  0.93492208313E+01  0.37486845416E+01  0.17205609471E+03  0.17120000000E+03 0.  0.
        998    1    1    2    0    0  0.12404928197E+01  0.74814851241E-01  0.14542273695E+04  0.14542622826E+04  0.10000000000E+02 0.  0.
</event>
<event>
 5    1  0.9130022E-009  0.3832067E+03  0.7957747E-01  0.3437314E+00
         13   -1    0    0    0    0  0.00000000000E+00  0.00000000000E+00  0.14999999963E+04  0.15000000000E+04  0.10566000000E+00 0.  1.
        994   -1    0    0    0    0 -0.00000000000E+00 -0.00000000000E+00  0.11368683772E-12  0.17120000000E+03  0.17120000000E+03 0.  0.
         13    1    1    2    0    0  0.10623374371E+02  0.13882416839E+01  0.20921505964E+02  0.23505400951E+02  0.10566000000E+00 0.  1.
        994    1    1    2    0    0 -0.20578794867E+02 -0.41118460935E+01  0.39812383538E+01  0.17252734373E+03  0.17120000000E+03 0.  0.
        998    1    1    2    0    0  0.99554204958E+01  0.27236044096E+01  0.14750972520E+04  0.14751672553E+04  0.10000000000E+02 0.  1.
</event>
<event>
 5    1  0.9130022E-009  0.3808077E+03  0.7957747E-01  0.3447649E+00
         13   -1    0    0    0    0  0.00000000000E+00  0.00000000000E+00  0.14999999963E+04  0.15000000000E+04  0.10566000000E+00 0.  1.
        994   -1    0    0    0    0 -0.00000000000E+00 -0.00000000000E+00  0.11368683772E-12  0.17120000000E+03  0.17120000000E+03 0.  0.
         13    1    1    2    0    0 -0.10942378573E+02 -0.31989236596E+01  0.15803669409E+02  0.19486813291E+02  0.10566000000E+00 0.  1.
        994    1    1    2    0    0  0.38286401374E+01  0.20971302766E+02  0.52426255859E+01  0.17260179358E+03  0.17120000000E+03 0.  0.
        998    1    1    2    0    0  0.71137384360E+01 -0.17772379107E+02  0.14789537013E+04  0.14791113931E+04  0.10000000000E+02 0.  1.
</event>
<event>
 5    1  0.9130022E-009  0.3775320E+03  0.7957747E-01  0.3461975E+00
         13   -1    0    0    0    0  0.00000000000E+00  0.00000000000E+00  0.14999999963E+04  0.15000000000E+04  0.10566000000E+00 0. -1.
        994   -1    0    0    0    0 -0.00000000000E+00 -0.00000000000E+00  0.11368683772E-12  0.17120000000E+03  0.17120000000E+03 0.  0.
         13    1    1    2    0    0 -0.82020661822E+02 -0.52986418507E+02  0.54066883857E+03  0.54941582947E+03  0.10566000000E+00 0. -1.
        994    1    1    2    0    0  0.96687125562E+02  0.36240151726E+02  0.42205974821E+02  0.20433436607E+03  0.17120000000E+03 0.  0.
        998    1    1    2    0    0 -0.14666463741E+02  0.16746266781E+02  0.91712518289E+03  0.91744980446E+03  0.10000000000E+02 0. -1.
</event>
<event>
 5    1  0.9130022E-009  0.3772331E+03  0.7957747E-01  0.3463295E+00
         13   -1    0    0    0    0  0.00000000000E+00  0.00000000000E+00  0.14999999963E+04  0.15000000000E+04  0.10566000000E+00 0.  1.
        994   -1    0    0    0    0 -0.00000000000E+00 -0.00000000000E+00  0.11368683772E-12  0.17120000000E+03  0.17120000000E+03 0.  0.
         13    1    1    2    0    0  0.19878805651E+03  0.57255755130E+02  0.89649603556E+03  0.92005438200E+03  0.10566000000E+00 0.  1.
        994    1    1    2    0    0 -0.20370943811E+03 -0.85052402114E+02  0.19298354777E+03  0.33953429281E+03  0.17120000000E+03 0.  0.
        998    1    1    2    0    0  0.49213816004E+01  0.27796646985E+02  0.41052041295E+03  0.41161132519E+03  0.10000000000E+02 0. -1.
</event>
<event>
 5    1  0.9130022E-009  0.3781825E+03  0.7957747E-01  0.3459111E+00
         13   -1    0    0    0    0  0.00000000000E+00  0.00000000000E+00  0.14999999963E+04  0.15000000000E+04  0.10566000000E+00 0. -1.
        994   -1    0    0    0    0 -0.00000000000E+00 -0.00000000000E+00  0.11368683772E-12  0.17120000000E+03  0.17120000000E+03 0.  0.
         13    1    1    2    0    0  0.54390810011E+02 -0.42016172672E+02  0.37933256055E+03  0.38550865313E+03  0.10566000000E+00 0. -1.
        994    1    1    2    0    0 -0.54462076653E+02  0.28895005639E+02  0.17945065860E+02  0.18284557564E+03  0.17120000000E+03 0.  0.
        998    1    1    2    0    0  0.71266642108E-01  0.13121167033E+02  0.11027223699E+04  0.11028457712E+04  0.10000000000E+02 0. -1.
</event>
<event>
 5    1  0.9130022E-009  0.3787093E+03  0.7957747E-01  0.3456798E+00
         13   -1    0    0    0    0  0.00000000000E+00  0.00000000000E+00  0.14999999963E+04  0.15000000000E+04  0.10566000000E+00 0.  1.
        994   -1    0    0    0    0 -0.00000000000E+00 -0.00000000000E+00  0.11368683772E-12  0.17120000000E+03  0.17120000000E+03 0.  0.
         13    1    1    2    0    0  0.16286237921E+02  0.30385536786E+02  0.34488656552E+02  0.48764751473E+02  0.10566000000E+00 0.  1.
        994    1    1    2    0    0  0.50280138146E+02 -0.14887195893E+02  0.25604076764E+02  0.18087213616E+03  0.17120000000E+03 0.  0.
        998    1    1    2    0    0 -0.66566376067E+02 -0.15498340893E+02  0.14399072630E+04  0.14415631124E+04  0.10000000000E+02 0.  1.
</event>
<event>
 5    1  0.9130022E-009  0.3857092E+03  0.7957747E-01  0.3426670E+00
         13   -1    0    0    0    0  0.00000000000E+00  0.00000000000E+00  0.14999999963E+04  0.15000000000E+04  0.10566000000E+00 0.  1.
        994   -1    0    0    0    0 -0.00000000000E+00 -0.00000000000E+00  0.11368683772E-12  0.17120000000E+03  0.17120000000E+03 0.  0.
         13    1    1    2    0    0  0.15774507902E+02  0.72801565264E+01  0.10438541403E+03  0.10582136648E+03  0.10566000000E+00 0.  1.
        994    1    1    2    0    0 -0.20478198053E+02 -0.17361738046E+02  0.36470104202E+01  0.17333068750E+03  0.17120000000E+03 0.  0.
        998    1    1    2    0    0  0.47036901511E+01  0.10081581519E+02  0.13919675718E+04  0.13920479460E+04  0.10000000000E+02 0.  1.
</event>
<event>
 5    1  0.9130022E-009  0.3836540E+03  0.7957747E-01  0.3435401E+00
         13   -1    0    0    0    0  0.00000000000E+00  0.00000000000E+00  0.14999999963E+04  0.15000000000E+04  0.10566000000E+00 0.  1.
        994   -1    0    0    0    0 -0.00000000000E+00 -0.00000000000E+00  0.11368683772E-12  0.17120000000E+03  0.17120000000E+03 0.  0.
         13    1    1    2    0    0 -0.22301889749E+02 -0.45644678036E+01  0.10397039197E+03  0.10643336988E+03  0.10566000000E+00 0.  1.
        994    1    1    2    0    0  0.24076775206E+02  0.85972080975E+01  0.44617346548E+01  0.17315585514E+03  0.17120000000E+03 0.  0.
        998    1    1    2    0    0 -0.17748854571E+01 -0.40327402939E+01  0.13915678697E+04  0.13916107750E+04  0.10000000000E+02 0.  1.
</event>
<event>
 5    1  0.9130022E-009  0.3846369E+03  0.7957747E-01  0.3431214E+00
         13   -1    0    0    0    0  0.00000000000E+00  0.00000000000E+00  0.14999999963E+04  0.15000000000E+04  0.10566000000E+00 0.  1.
        994   -1    0    0    0    0 -0.00000000000E+00 -0.00000000000E+00  0.11368683772E-12  0.17120000000E+03  0.17120000000E+03 0.  0.
         13    1    1    2    0    0  0.10110968655E+02 -0.66815998911E+00  0.28591600202E+02  0.30334285735E+02  0.10566000000E+00 0.  1.
        994    1    1    2    0    0 -0.10724678313E+01  0.76641267672E+01  0.20077407447E+01  0.17138658072E+03  0.17120000000E+03 0.  0.
        998    1    1    2    0    0 -0.90385008232E+01 -0.69959667781E+01  0.14694006553E+04  0.14694791335E+04  0.10000000000E+02 0.  1.
</event>
<event>
 5    1  0.9130022E-009  0.3824777E+03  0.7957747E-01  0.3440440E+00
         13   -1    0    0    0    0  0.00000000000E+00  0.00000000000E+00  0.14999999963E+04  0.15000000000E+04  0.10566000000E+00 0.  1.
        994   -1    0    0    0    0 -0.00000000000E+00 -0.00000000000E+00  0.11368683772E-12  0.17120000000E+03  0.17120000000E+03 0.  0.
         13    1    1    2    0    0  0.24927276972E+02  0.18139921466E+02  0.17646946214E+03  0.17914214501E+03  0.10566000000E+00 0.  1.
        994    1    1    2    0    0 -0.61581895237E+01 -0.68589555289E+01  0.31693916609E+01  0.17147726850E+03  0.17120000000E+03 0.  0.
        998    1    1    2    0    0 -0.18769087449E+02 -0.11280965937E+02  0.13203611425E+04  0.13205805865E+04  0.10000000000E+02 0.  1.
</event>
<event>
 5    1  0.9130022E-009  0.3787613E+03  0.7957747E-01  0.3456570E+00
         13   -1    0    0    0    0  0.00000000000E+00  0.00000000000E+00  0.14999999963E+04  0.15000000000E+04  0.10566000000E+00 0.  1.
        994   -1    0    0    0    0 -0.00000000000E+00 -0.00000000000E+00  0.11368683772E-12  0.17120000000E+03  0.17120000000E+03 0.  0.
         13    1    1    2    0    0 -0.47565052625E+02  0.43935604213E+02  0.34945510057E+03  0.35540350312E+03  0.10566000000E+00 0.  1.
        994    1    1    2    0    0  0.10969112657E+03  0.82474153226E+01  0.46512203472E+02  0.20874143858E+03  0.17120000000E+03 0.  0.
        998    1    1    2    0    0 -0.62126073948E+02 -0.52183019536E+02  0.11040326922E+04  0.11070550583E+04  0.10000000000E+02 0.  1.
</event>
<event>
 5    1  0.9130022E-009  0.3841690E+03  0.7957747E-01  0.3433204E+00
         13   -1    0    0    0    0  0.00000000000E+00  0.00000000000E+00  0.14999999963E+04  0.15000000000E+04  0.10566000000E+00 0. -1.
        994   -1    0    0    0    0 -0.00000000000E+00 -0.00000000000E+00  0.11368683772E-12  0.17120000000E+03  0.17120000000E+03 0.  0.
         13    1    1    2    0    0  0.54557178333E+01  0.11490849999E+02  0.39835279254E+02  0.41817043512E+02  0.10566000000E+00 0. -1.
        994    1    1    2    0    0 -0.81344778634E+01 -0.13154605617E+01  0.22672114799E+01  0.17141318623E+03  0.17120000000E+03 0.  0.
        998    1    1    2    0    0  0.26787600301E+01 -0.10175389437E+02  0.14578975055E+04  0.14579697703E+04  0.10000000000E+02 0. -1.
</event>
<event>
 5    1  0.9130022E-009  0.3753178E+03  0.7957747E-01  0.3471803E+00
         13   -1    0    0    0    0  0.00000000000E+00  0.00000000000E+00  0.14999999963E+04  0.15000000000E+04  0.10566000000E+00 0. -1.
        994   -1    0    0    0    0 -0.00000000000E+00 -0.00000000000E+00  0.11368683772E-12  0.17120000000E+03  0.17120000000E+03 0.  0.
         13    1    1    2    0    0  0.26759312917E+02  0.49678779254E+00  0.55637828453E+02  0.61740478982E+02  0.10566000000E+00 0. -1.
        994    1    1    2    0    0  0.32844214387E+00 -0.26064490487E+01  0.65390750336E+01  0.17134497645E+03  0.17120000000E+03 0.  0.
        998    1    1    2    0    0 -0.27087755061E+02  0.21096612562E+01  0.14378230928E+04  0.14381145446E+04  0.10000000000E+02 0. -1.
</event>
<event>
 5    1  0.9130022E-009  0.3839048E+03  0.7957747E-01  0.3434331E+00
         13   -1    0    0    0    0  0.00000000000E+00  0.00000000000E+00  0.14999999963E+04  0.15000000000E+04  0.10566000000E+00 0.  1.
        994   -1    0    0    0    0 -0.00000000000E+00 -0.00000000000E+00  0.11368683772E-12  0.17120000000E+03  0.17120000000E+03 0.  0.
         13    1    1    2    0    0  0.60608916242E+01  0.21739499586E+02  0.11124239094E+03  0.11350868229E+03  0.10566000000E+00 0.  1.
        994    1    1    2    0    0  0.34238861551E+02 -0.33553158360E+02  0.97967101688E+01  0.17805484999E+03  0.17120000000E+03 0.  0.
        998    1    1    2    0    0 -0.40299753175E+02  0.11813658774E+02  0.13789608952E+04  0.13796364677E+04  0.10000000000E+02 0.  1.
</event>
<event>
 5    1  0.1098067E-008  0.3862569E+03  0.7957747E-01  0.3424359E+00
         13   -1    0    0    0    0  0.00000000000E+00  0.00000000000E+00  0.14999999963E+04  0.15000000000E+04  0.10566000000E+00 0.  1.
        994   -1    0    0    0    0 -0.00000000000E+00 -0.00000000000E+00  0.11368683772E-12  0.17120000000E+03  0.17120000000E+03 0.  0.
         13    1    1    2    0    0 -0.98933935081E+01 -0.36029600912E+01  0.61671421994E+02  0.62563855471E+02  0.10566000000E+00 0.  1.
        994    1    1    2    0    0 -0.28313707556E+01 -0.73259635452E+01  0.12094377579E+01  0.17138433167E+03  0.17120000000E+03 0.  0.
        998    1    1    2    0    0  0.12724764264E+02  0.10928923636E+02  0.14371191365E+04  0.14372518129E+04  0.10000000000E+02 0.  1.
</event>
<event>
 5    1  0.9130022E-009  0.4011657E+03  0.7957747E-01  0.3363878E+00
         13   -1    0    0    0    0  0.00000000000E+00  0.00000000000E+00  0.14999999963E+04  0.15000000000E+04  0.10566000000E+00 0.  1.
        994   -1    0    0    0    0 -0.00000000000E+00 -0.00000000000E+00  0.11368683772E-12  0.17120000000E+03  0.17120000000E+03 0.  0.
         13    1    1    2    0    0  0.11387412408E+03 -0.10078547788E+02  0.18210163330E+03  0.21501141661E+03  0.10566000000E+00 0.  1.
        994    1    1    2    0    0 -0.12567330580E+03  0.25271919972E+02  0.96565216879E+02  0.23466301549E+03  0.17120000000E+03 0.  0.
        998    1    1    2    0    0  0.11799181714E+02 -0.15193372184E+02  0.12213331461E+04  0.12215255679E+04  0.10000000000E+02 0.  1.
</event>
<event>
 5    1  0.9130022E-009  0.3685065E+03  0.7957747E-01  0.3502783E+00
         13   -1    0    0    0    0  0.00000000000E+00  0.00000000000E+00  0.14999999963E+04  0.15000000000E+04  0.10566000000E+00 0.  1.
        994   -1    0    0    0    0 -0.00000000000E+00 -0.00000000000E+00  0.11368683772E-12  0.17120000000E+03  0.17120000000E+03 0.  0.
         13    1    1    2    0    0 -0.83365910890E+01 -0.60625160042E+02  0.17627597832E+03  0.18659619631E+03  0.10566000000E+00 0.  1.
        994    1    1    2    0    0  0.11085401794E+03  0.35739932685E+02  0.58802397692E+02  0.21525129049E+03  0.17120000000E+03 0.  0.
        998    1    1    2    0    0 -0.10251742685E+03  0.24885227357E+02  0.12649216203E+04  0.12693525132E+04  0.10000000000E+02 0.  1.
</event>
<event>
 5    1  0.9130022E-009  0.3688471E+03  0.7957747E-01  0.3501206E+00
         13   -1    0    0    0    0  0.00000000000E+00  0.00000000000E+00  0.14999999963E+04  0.15000000000E+04  0.10566000000E+00 0.  1.
        994   -1    0    0    0    0 -0.00000000000E+00 -0.00000000000E+00  0.11368683772E-12  0.17120000000E+03  0.17120000000E+03 0.  0.
         13    1    1    2    0    0 -0.63305019502E+02  0.26487630631E+02  0.19952033484E+03  0.21099169474E+03  0.10566000000E+00 0.  1.
        994    1    1    2    0    0  0.60107582207E+02 -0.46594536639E+02  0.30229604775E+02  0.18975574112E+03  0.17120000000E+03 0.  0.
        998    1    1    2    0    0  0.31974372945E+01  0.20106906008E+02  0.12702500567E+04  0.12704525641E+04  0.10000000000E+02 0.  1.
</event>
<event>
 5    1  0.9130022E-009  0.3815546E+03  0.7957747E-01  0.3444417E+00
         13   -1    0    0    0    0  0.00000000000E+00  0.00000000000E+00  0.14999999963E+04  0.15000000000E+04  0.10566000000E+00 0.  1.
        994   -1    0    0    0    0 -0.00000000000E+00 -0.00000000000E+00  0.11368683772E-12  0.17120000000E+03  0.17120000000E+03 0.  0.
         13    1    1    2    0    0 -0.68895527246E+01  0.10550289616E+02  0.22513663114E+02  0.25800208111E+02  0.10566000000E+00 0.  1.
        994    1    1    2    0    0  0.30511375033E+01 -0.59111855493E+01  0.34976490524E+01  0.17136488877E+03  0.17120000000E+03 0.  0.
        998    1    1    2    0    0  0.38384152212E+01 -0.46391040671E+01  0.14739886841E+04  0.14740349031E+04  0.10000000000E+02 0.  1.
</event>
<event>
 5    1  0.9130022E-009  0.3768417E+03  0.7957747E-01  0.3465027E+00
         13   -1    0    0    0    0  0.00000000000E+00  0.00000000000E+00  0.14999999963E+04  0.15000000000E+04  0.10566000000E+00 0. -1.
        994   -1    0    0    0    0 -0.00000000000E+00 -0.00000000000E+00  0.11368683772E-12  0.17120000000E+03  0.17120000000E+03 0.  0.
         13    1    1    2    0    0  0.30011672633E+02 -0.14869992485E+02  0.10061357229E+03  0.10604206366E+03  0.10566000000E+00 0. -1.
        994    1    1    2    0    0 -0.41119983521E+01  0.13200472955E+02  0.63820451130E+01  0.17187591895E+03  0.17120000000E+03 0.  0.
        998    1    1    2    0    0 -0.25899674281E+02  0.16695195298E+01  0.13930043789E+04  0.13932820174E+04  0.10000000000E+02 0. -1.
</event>
<event>
 5    1  0.9130022E-009  0.3836792E+03  0.7957747E-01  0.3435293E+00
         13   -1    0    0    0    0  0.00000000000E+00  0.00000000000E+00  0.14999999963E+04  0.15000000000E+04  0.10566000000E+00 0.  1.
        994   -1    0    0    0    0 -0.00000000000E+00 -0.00000000000E+00  0.11368683772E-12  0.17120000000E+03  0.17120000000E+03 0.  0.
         13    1    1    2    0    0 -0.10775694654E+02 -0.15097654769E+02  0.69290637087E+02  0.71730456061E+02  0.10566000000E+00 0.  1.
        994    1    1    2    0    0  0.12706234244E+02  0.22213389409E+02  0.44532611258E+01  0.17315933296E+03  0.17120000000E+03 0.  0.
        998    1    1    2    0    0 -0.19305395901E+01 -0.71157346403E+01  0.14262560981E+04  0.14263102110E+04  0.10000000000E+02 0.  1.
</event>
<event>
 5    1  0.9130022E-009  0.3814893E+03  0.7957747E-01  0.3444699E+00
         13   -1    0    0    0    0  0.00000000000E+00  0.00000000000E+00  0.14999999963E+04  0.15000000000E+04  0.10566000000E+00 0. -1.
        994   -1    0    0    0    0 -0.00000000000E+00 -0.00000000000E+00  0.11368683772E-12  0.17120000000E+03  0.17120000000E+03 0.  0.
         13    1    1    2    0    0 -0.26403347280E+02 -0.28258604930E+02  0.40744307792E+02  0.56176465550E+02  0.10566000000E+00 0. -1.
        994    1    1    2    0    0 -0.51056532236E+01 -0.11043760904E+02  0.17687435036E+02  0.17254077115E+03  0.17120000000E+03 0.  0.
        998    1    1    2    0    0  0.31509000504E+02  0.39302365833E+02  0.14415682535E+04  0.14424827633E+04  0.10000000000E+02 0. -1.
</event>
<event>
 5    1  0.9130022E-009  0.3778668E+03  0.7957747E-01  0.3460500E+00
         13   -1    0    0    0    0  0.00000000000E+00  0.00000000000E+00  0.14999999963E+04  0.15000000000E+04  0.10566000000E+00 0.  1.
        994   -1    0    0    0    0 -0.00000000000E+00 -0.00000000000E+00  0.11368683772E-12  0.17120000000E+03  0.17120000000E+03 0.  0.
         13    1    1    2    0    0 -0.41586039323E+02 -0.92199565355E+00  0.52428836990E+02  0.66925651694E+02  0.10566000000E+00 0.  1.
        994    1    1    2    0    0  0.20853643360E+02  0.26896829299E+02  0.19336334104E+02  0.17561790252E+03  0.17120000000E+03 0.  0.
        998    1    1    2    0    0  0.20732395962E+02 -0.25974833645E+02  0.14282348252E+04  0.14286564458E+04  0.10000000000E+02 0.  1.
</event>
<event>
 5    1  0.9130022E-009  0.3849426E+03  0.7957747E-01  0.3429916E+00
         13   -1    0    0    0    0  0.00000000000E+00  0.00000000000E+00  0.14999999963E+04  0.15000000000E+04  0.10566000000E+00 0. -1.
        994   -1    0    0    0    0 -0.00000000000E+00 -0.00000000000E+00  0.11368683772E-12  0.17120000000E+03  0.17120000000E+03 0.  0.
         13    1    1    2    0    0 -0.78178868429E+01  0.65601323360E+01  0.31519973460E+02  0.33131172359E+02  0.10566000000E+00 0. -1.
        994    1    1    2    0    0 -0.54059829055E+01 -0.13378140475E+02  0.23437522813E+01  0.17182296840E+03  0.17120000000E+03 0.  0.
        998    1    1    2    0    0  0.13223869748E+02  0.68180081387E+01  0.14661362705E+04  0.14662458592E+04  0.10000000000E+02 0. -1.
</event>
<event>
 5    1  0.9130022E-009  0.3823252E+03  0.7957747E-01  0.3441096E+00
         13   -1    0    0    0    0  0.00000000000E+00  0.00000000000E+00  0.14999999963E+04  0.15000000000E+04  0.10566000000E+00 0. -1.
        994   -1    0    0    0    0 -0.00000000000E+00 -0.00000000000E+00  0.11368683772E-12  0.17120000000E+03  0.17120000000E+03 0.  0.
         13    1    1    2    0    0  0.15228064563E+02 -0.48134147090E+01  0.42590426686E+02  0.45486465249E+02  0.10566000000E+00 0. -1.
        994    1    1    2    0    0 -0.69463513037E+01  0.21926343851E+01  0.31400184892E+01  0.17138366071E+03  0.17120000000E+03 0.  0.
        998    1    1    2    0    0 -0.82817132597E+01  0.26207803240E+01  0.14542695511E+04  0.14543298740E+04  0.10000000000E+02 0. -1.
</event>
<event>
 5    1  0.9130022E-009  0.3739220E+03  0.7957747E-01  0.3478058E+00
         13   -1    0    0    0    0  0.00000000000E+00  0.00000000000E+00  0.14999999963E+04  0.15000000000E+04  0.10566000000E+00 0.  1.
        994   -1    0    0    0    0 -0.00000000000E+00 -0.00000000000E+00  0.11368683772E-12  0.17120000000E+03  0.17120000000E+03 0.  0.
         13    1    1    2    0    0 -0.29703831217E+01  0.40376358204E+02  0.11587073254E+03  0.12274001508E+03  0.10566000000E+00 0.  1.
        994    1    1    2    0    0 -0.16714699798E+02 -0.15813777865E+02  0.90417232031E+01  0.17297586398E+03  0.17120000000E+03 0.  0.
        998    1    1    2    0    0  0.19685082920E+02 -0.24562580338E+02  0.13750875405E+04  0.13754841209E+04  0.10000000000E+02 0.  1.
</event>
<event>
 5    1  0.9130022E-009  0.3725856E+03  0.7957747E-01  0.3484092E+00
         13   -1    0    0    0    0  0.00000000000E+00  0.00000000000E+00  0.14999999963E+04  0.15000000000E+04  0.10566000000E+00 0.  1.
        994   -1    0    0    0    0 -0.00000000000E+00 -0.00000000000E+00  0.11368683772E-12  0.17120000000E+03  0.17120000000E+03 0.  0.
         13    1    1    2    0    0  0.12942270896E+02  0.10278890437E+02  0.13649099746E+02  0.21435182585E+02  0.10566000000E+00 0.  1.
        994    1    1    2    0    0 -0.12246092229E+02 -0.88541665553E+01  0.87068266997E+01  0.17208605949E+03  0.17120000000E+03 0.  0.
        998    1    1    2    0    0 -0.69617866668E+00 -0.14247238820E+01  0.14776440698E+04  0.14776787579E+04  0.10000000000E+02 0.  1.
</event>
<event>
 5    1  0.9130022E-009  0.3770221E+03  0.7957747E-01  0.3464228E+00
         13   -1    0    0    0    0  0.00000000000E+00  0.00000000000E+00  0.14999999963E+04  0.15000000000E+04  0.10566000000E+00 0.  1.
        994   -1    0    0    0    0 -0.00000000000E+00 -0.00000000000E+00  0.11368683772E-12  0.17120000000E+03  0.17120000000E+03 0.  0.
         13    1    1    2    0    0  0.17785330461E+01 -0.12825152622E+02  0.12366662754E+02  0.17905117461E+02  0.10566000000E+00 0.  1.
        994    1    1    2    0    0 -0.59919487687E+00  0.88266509763E+01  0.59082798900E+01  0.17153022058E+03  0.17120000000E+03 0.  0.
        998    1    1    2    0    0 -0.11793381692E+01  0.39985016459E+01  0.14817250536E+04  0.14817646620E+04  0.10000000000E+02 0.  1.
</event>
<event>
 5    1  0.9130022E-009  0.3709368E+03  0.7957747E-01  0.3491596E+00
         13   -1    0    0    0    0  0.00000000000E+00  0.00000000000E+00  0.14999999963E+04  0.15000000000E+04  0.10566000000E+00 0.  1.
        994   -1    0    0    0    0 -0.00000000000E+00 -0.00000000000E+00  0.11368683772E-12  0.17120000000E+03  0.17120000000E+03 0.  0.
         13    1    1    2    0    0  0.35387857549E+02  0.87033353190E+01  0.51978550333E+02  0.63480937032E+02  0.10566000000E+00 0.  1.
        994    1    1    2    0    0 -0.28832109838E+02 -0.34745325169E+02  0.18619520710E+02  0.17802992650E+03  0.17120000000E+03 0.  0.
        998    1    1    2    0    0 -0.65557477114E+01  0.26041989850E+02  0.14294019252E+04  0.14296891365E+04  0.10000000000E+02 0.  1.
</event>
<event>
 5    1  0.9130022E-009  0.3779901E+03  0.7957747E-01  0.3459957E+00
         13   -1    0    0    0    0  0.00000000000E+00  0.00000000000E+00  0.14999999963E+04  0.15000000000E+04  0.10566000000E+00 0. -1.
        994   -1    0    0    0    0 -0.00000000000E+00 -0.00000000000E+00  0.11368683772E-12  0.17120000000E+03  0.17120000000E+03 0.  0.
         13    1    1    2    0    0 -0.17631103286E+02 -0.57712370509E+02  0.34247729935E+03  0.34775319589E+03  0.10566000000E+00 0. -1.
        994    1    1    2    0    0  0.66047724041E+01  0.36933431253E+02  0.99031352007E+01  0.17554262573E+03  0.17120000000E+03 0.  0.
        998    1    1    2    0    0  0.11026330882E+02  0.20778939257E+02  0.11476195617E+04  0.11479041784E+04  0.10000000000E+02 0. -1.
</event>
<event>
 5    1  0.9130022E-009  0.3781032E+03  0.7957747E-01  0.3459460E+00
         13   -1    0    0    0    0  0.00000000000E+00  0.00000000000E+00  0.14999999963E+04  0.15000000000E+04  0.10566000000E+00 0.  1.
        994   -1    0    0    0    0 -0.00000000000E+00 -0.00000000000E+00  0.11368683772E-12  0.17120000000E+03  0.17120000000E+03 0.  0.
         13    1    1    2    0    0  0.50195543150E+01  0.18276596954E+02  0.33500100337E+02  0.38490230038E+02  0.10566000000E+00 0.  1.
        994    1    1    2    0    0 -0.60761991391E+01 -0.86460844385E+01  0.54694941478E+01  0.17161302497E+03  0.17120000000E+03 0.  0.
        998    1    1    2    0    0  0.10566448241E+01 -0.96305125155E+01  0.14610304018E+04  0.14610967450E+04  0.10000000000E+02 0.  1.
</event>
<event>
 5    1  0.9130022E-009  0.3887184E+03  0.7957747E-01  0.3414053E+00
         13   -1    0    0    0    0  0.00000000000E+00  0.00000000000E+00  0.14999999963E+04  0.15000000000E+04  0.10566000000E+00 0.  1.
        994   -1    0    0    0    0 -0.00000000000E+00 -0.00000000000E+00  0.11368683772E-12  0.17120000000E+03  0.17120000000E+03 0.  0.
         13    1    1    2    0    0 -0.39050320081E+02  0.57543459788E+01  0.27081762331E+02  0.47869332678E+02  0.10566000000E+00 0.  1.
        994    1    1    2    0    0  0.51703546219E+02  0.10368160554E+02  0.31686094746E+02  0.18191812456E+03  0.17120000000E+03 0.  0.
        998    1    1    2    0    0 -0.12653226138E+02 -0.16122506532E+02  0.14412321392E+04  0.14414125428E+04  0.10000000000E+02 0.  1.
</event>
<event>
 5    1  0.9130022E-009  0.3741066E+03  0.7957747E-01  0.3477228E+00
         13   -1    0    0    0    0  0.00000000000E+00  0.00000000000E+00  0.14999999963E+04  0.15000000000E+04  0.10566000000E+00 0. -1.
        994   -1    0    0    0    0 -0.00000000000E+00 -0.00000000000E+00  0.11368683772E-12  0.17120000000E+03  0.17120000000E+03 0.  0.
         13    1    1    2    0    0 -0.22417112833E+02 -0.36459871663E+02  0.11668522219E+03  0.12428717323E+03  0.10566000000E+00 0. -1.
        994    1    1    2    0    0  0.19783520312E+02  0.38337179260E+02  0.13510320387E+02  0.17706805400E+03  0.17120000000E+03 0.  0.
        998    1    1    2    0    0  0.26335925213E+01 -0.18773075979E+01  0.13698044537E+04  0.13698447728E+04  0.10000000000E+02 0. -1.
</event>
<event>
 5    1  0.9130022E-009  0.3829520E+03  0.7957747E-01  0.3438405E+00
         13   -1    0    0    0    0  0.00000000000E+00  0.00000000000E+00  0.14999999963E+04  0.15000000000E+04  0.10566000000E+00 0.  1.
        994   -1    0    0    0    0 -0.00000000000E+00 -0.00000000000E+00  0.11368683772E-12  0.17120000000E+03  0.17120000000E+03 0.  0.
         13    1    1    2    0    0 -0.17893517571E+02 -0.19407077584E+01  0.57850047866E+02  0.60585340800E+02  0.10566000000E+00 0.  1.
        994    1    1    2    0    0  0.20755561224E+02 -0.13754195976E+01  0.40841353973E+01  0.17250740640E+03  0.17120000000E+03 0.  0.
        998    1    1    2    0    0 -0.28620436527E+01  0.33161273560E+01  0.14380658130E+04  0.14381072528E+04  0.10000000000E+02 0.  1.
</event>
<event>
 5    1  0.9130022E-009  0.3817660E+03  0.7957747E-01  0.3443505E+00
         13   -1    0    0    0    0  0.00000000000E+00  0.00000000000E+00  0.14999999963E+04  0.15000000000E+04  0.10566000000E+00 0.  1.
        994   -1    0    0    0    0 -0.00000000000E+00 -0.00000000000E+00  0.11368683772E-12  0.17120000000E+03  0.17120000000E+03 0.  0.
         13    1    1    2    0    0  0.44129373949E+02 -0.36000784284E+02  0.31336070888E+03  0.31849396093E+03  0.10566000000E+00 0.  1.
        994    1    1    2    0    0 -0.58475224494E+02  0.54158004207E+02  0.24652533234E+02  0.19044586815E+03  0.17120000000E+03 0.  0.
        998    1    1    2    0    0  0.14345850546E+02 -0.18157219923E+02  0.11619867542E+04  0.11622601709E+04  0.10000000000E+02 0. -1.
</event>
<event>
 5    1  0.9130022E-009  0.3857560E+03  0.7957747E-01  0.3426472E+00
         13   -1    0    0    0    0  0.00000000000E+00  0.00000000000E+00  0.14999999963E+04  0.15000000000E+04  0.10566000000E+00 0. -1.
        994   -1    0    0    0    0 -0.00000000000E+00 -0.00000000000E+00  0.11368683772E-12  0.17120000000E+03  0.17120000000E+03 0.  0.
         13    1    1    2    0    0  0.11382683282E+02 -0.48413034810E+01  0.60008026696E+02  0.61269716256E+02  0.10566000000E+00 0. -1.
        994    1    1    2    0    0 -0.10149188353E+02  0.60162518759E+01  0.17120624640E+01  0.17161460447E+03  0.17120000000E+03 0.  0.
        998    1    1    2    0    0 -0.12334949285E+01 -0.11749483949E+01  0.14382799071E+04  0.14383156793E+04  0.10000000000E+02 0. -1.
</event>
<event>
 5    1  0.9130022E-009  0.4086739E+03  0.7957747E-01  0.3335081E+00
         13   -1    0    0    0    0  0.00000000000E+00  0.00000000000E+00  0.14999999963E+04  0.15000000000E+04  0.10566000000E+00 0. -1.
        994   -1    0    0    0    0 -0.00000000000E+00 -0.00000000000E+00  0.11368683772E-12  0.17120000000E+03  0.17120000000E+03 0.  0.
         13    1    1    2    0    0  0.42634159108E+02 -0.77725391963E+01  0.89160533401E+01  0.44244672669E+02  0.10566000000E+00 0. -1.
        994    1    1    2    0    0 -0.11013424007E+03  0.11061618873E+03  0.14093777051E+03  0.27117962166E+03  0.17120000000E+03 0.  0.
        998    1    1    2    0    0  0.67500080964E+02 -0.10284364953E+03  0.13501461724E+04  0.13557757057E+04  0.10000000000E+02 0. -1.
</event>
<event>
 5    1  0.9130022E-009  0.3845368E+03  0.7957747E-01  0.3431639E+00
         13   -1    0    0    0    0  0.00000000000E+00  0.00000000000E+00  0.14999999963E+04  0.15000000000E+04  0.10566000000E+00 0. -1.
        994   -1    0    0    0    0 -0.00000000000E+00 -0.00000000000E+00  0.11368683772E-12  0.17120000000E+03  0.17120000000E+03 0.  0.
         13    1    1    2    0    0  0.79595358576E+01  0.19110710434E+02  0.12367664351E+03  0.12539735555E+03  0.10566000000E+00 0. -1.
        994    1    1    2    0    0 -0.10475346536E+02 -0.36424984673E+00  0.22222289321E+01  0.17153496397E+03  0.17120000000E+03 0.  0.
        998    1    1    2    0    0  0.25158106787E+01 -0.18746460587E+02  0.13741011238E+04  0.13742676805E+04  0.10000000000E+02 0. -1.
</event>
<event>
 5    1  0.9130022E-009  0.3845375E+03  0.7957747E-01  0.3431636E+00
         13   -1    0    0    0    0  0.00000000000E+00  0.00000000000E+00  0.14999999963E+04  0.15000000000E+04  0.10566000000E+00 0.  1.
        994   -1    0    0    0    0 -0.00000000000E+00 -0.00000000000E+00  0.11368683772E-12  0.17120000000E+03  0.17120000000E+03 0.  0.
         13    1    1    2    0    0  0.15554992413E+01 -0.19556792970E+02  0.10401041678E+03  0.10584453548E+03  0.10566000000E+00 0.  1.
        994    1    1    2    0    0  0.69241419259E+01  0.12123590558E+02  0.25021906901E+01  0.17178657150E+03  0.17120000000E+03 0.  0.
        998    1    1    2    0    0 -0.84796411672E+01  0.74332024122E+01  0.13934873888E+04  0.13935688930E+04  0.10000000000E+02 0.  1.
</event>
<event>
 5    1  0.9130022E-009  0.3732281E+03  0.7957747E-01  0.3481186E+00
         13   -1    0    0    0    0  0.00000000000E+00  0.00000000000E+00  0.14999999963E+04  0.15000000000E+04  0.10566000000E+00 0.  1.
        994   -1    0    0    0    0 -0.00000000000E+00 -0.00000000000E+00  0.11368683772E-12  0.17120000000E+03  0.17120000000E+03 0.  0.
         13    1    1    2    0    0  0.36027595542E+02  0.40964311122E+02  0.11544713301E+03  0.12768756443E+03  0.10566000000E+00 0.  1.
        994    1    1    2    0    0 -0.21245649383E+02 -0.20650491327E+02  0.15766167993E+02  0.17445868411E+03  0.17120000000E+03 0.  0.
        998    1    1    2    0    0 -0.14781946159E+02 -0.20313819795E+02  0.13687866953E+04  0.13690537515E+04  0.10000000000E+02 0.  1.
</event>
<event>
 5    1  0.9130022E-009  0.3848686E+03  0.7957747E-01  0.3430230E+00
         13   -1    0    0    0    0  0.00000000000E+00  0.00000000000E+00  0.14999999963E+04  0.15000000000E+04  0.10566000000E+00 0. -1.
        994   -1    0    0    0    0 -0.00000000000E+00 -0.00000000000E+00  0.11368683772E-12  0.17120000000E+03  0.17120000000E+03 0.  0.
         13    1    1    2    0    0 -0.11767185211E+02 -0.46735325596E+02  0.55032503020E+02  0.73152203378E+02  0.10566000000E+00 0. -1.
        994    1    1    2    0    0  0.10256853749E+02  0.27080386336E+02  0.22127417730E+02  0.17503603340E+03  0.17120000000E+03 0.  0.
        998    1    1    2    0    0  0.15103314621E+01  0.19654939260E+02  0.14228400755E+04  0.14230117632E+04  0.10000000000E+02 0. -1.
</event>
<event>
 5    1  0.9130022E-009  0.3830965E+03  0.7957747E-01  0.3437785E+00
         13   -1    0    0    0    0  0.00000000000E+00  0.00000000000E+00  0.14999999963E+04  0.15000000000E+04  0.10566000000E+00 0. -1.
        994   -1    0    0    0    0 -0.00000000000E+00 -0.00000000000E+00  0.11368683772E-12  0.17120000000E+03  0.17120000000E+03 0.  0.
         13    1    1    2    0    0  0.34648207946E+01  0.12108750412E+02  0.30167056122E+02  0.32690813064E+02  0.10566000000E+00 0. -1.
        994    1    1    2    0    0  0.23440282565E+01 -0.71244747940E+01  0.27643054315E+01  0.17138650470E+03  0.17120000000E+03 0.  0.
        998    1    1    2    0    0 -0.58088490511E+01 -0.49842756178E+01  0.14670686347E+04  0.14671226822E+04  0.10000000000E+02 0. -1.
</event>
<event>
 5    1  0.9130022E-009  0.3799088E+03  0.7957747E-01  0.3451556E+00
         13   -1    0    0    0    0  0.00000000000E+00  0.00000000000E+00  0.14999999963E+04  0.15000000000E+04  0.10566000000E+00 0. -1.
        994   -1    0    0    0    0 -0.00000000000E+00 -0.00000000000E+00  0.11368683772E-12  0.17120000000E+03  0.17120000000E+03 0.  0.
         13    1    1    2    0    0 -0.11878288746E+02  0.22399783349E+00  0.15716400575E+02  0.19701784935E+02  0.10566000000E+00 0. -1.
        994    1    1    2    0    0 -0.76530442083E+01  0.14308478807E+01  0.43819212152E+01  0.17143295379E+03  0.17120000000E+03 0.  0.
        998    1    1    2    0    0  0.19531332954E+02 -0.16548457142E+01  0.14799016745E+04  0.14800652613E+04  0.10000000000E+02 0. -1.
</event>
<event>
 5    1  0.9130022E-009  0.3784620E+03  0.7957747E-01  0.3457883E+00
         13   -1    0    0    0    0  0.00000000000E+00  0.00000000000E+00  0.14999999963E+04  0.15000000000E+04  0.10566000000E+00 0. -1.
        994   -1    0    0    0    0 -0.00000000000E+00 -0.00000000000E+00  0.11368683772E-12  0.17120000000E+03  0.17120000000E+03 0.  0.
         13    1    1    2    0    0 -0.41569814250E+01 -0.20444117874E+02  0.45956169400E+02  0.50470021995E+02  0.10566000000E+00 0. -1.
        994    1    1    2    0    0 -0.67134830696E+01 -0.87317919126E+01  0.53192734752E+01  0.17163638809E+03  0.17120000000E+03 0.  0.
        998    1    1    2    0    0  0.10870464495E+02  0.29175909787E+02  0.14487245534E+04  0.14490935899E+04  0.10000000000E+02 0. -1.
</event>
<event>
 5    1  0.9130022E-009  0.3776626E+03  0.7957747E-01  0.3461399E+00
         13   -1    0    0    0    0  0.00000000000E+00  0.00000000000E+00  0.14999999963E+04  0.15000000000E+04  0.10566000000E+00 0.  1.
        994   -1    0    0    0    0 -0.00000000000E+00 -0.00000000000E+00  0.11368683772E-12  0.17120000000E+03  0.17120000000E+03 0.  0.
         13    1    1    2    0    0  0.26155798423E+02 -0.10842817038E+02  0.77128944169E+02  0.82161899108E+02  0.10566000000E+00 0.  1.
        994    1    1    2    0    0 -0.62390734967E+01  0.13487574708E+00  0.54489208194E+01  0.17140033538E+03  0.17120000000E+03 0.  0.
        998    1    1    2    0    0 -0.19916724926E+02  0.10707941291E+02  0.14174221313E+04  0.14176377655E+04  0.10000000000E+02 0.  1.
</event>
<event>
 5    1  0.9130022E-009  0.3785012E+03  0.7957747E-01  0.3457711E+00
         13   -1    0    0    0    0  0.00000000000E+00  0.00000000000E+00  0.14999999963E+04  0.15000000000E+04  0.10566000000E+00 0. -1.
        994   -1    0    0    0    0 -0.00000000000E+00 -0.00000000000E+00  0.11368683772E-12  0.17120000000E+03  0.17120000000E+03 0.  0.
         13    1    1    2    0    0  0.24159480180E+02 -0.43495945313E+02  0.24578238655E+03  0.25076796136E+03  0.10566000000E+00 0. -1.
        994    1    1    2    0    0 -0.15641890713E+01  0.35462440642E+02  0.91364710312E+01  0.17507982890E+03  0.17120000000E+03 0.  0.
        998    1    1    2    0    0 -0.22595291109E+02  0.80335046709E+01  0.12450811387E+04  0.12453522097E+04  0.10000000000E+02 0. -1.
</event>
<event>
 5    1  0.9130022E-009  0.3769255E+03  0.7957747E-01  0.3464656E+00
         13   -1    0    0    0    0  0.00000000000E+00  0.00000000000E+00  0.14999999963E+04  0.15000000000E+04  0.10566000000E+00 0.  1.
        994   -1    0    0    0    0 -0.00000000000E+00 -0.00000000000E+00  0.11368683772E-12  0.17120000000E+03  0.17120000000E+03 0.  0.
         13    1    1    2    0    0 -0.19060677969E+02 -0.17061606707E+02  0.53927740788E+02  0.59687689338E+02  0.10566000000E+00 0.  1.
        994    1    1    2    0    0  0.65221447633E+01  0.28500035437E+02  0.85855165758E+01  0.17389060207E+03  0.17120000000E+03 0.  0.
        998    1    1    2    0    0  0.12538533205E+02 -0.11438428730E+02  0.14374867389E+04  0.14376217086E+04  0.10000000000E+02 0.  1.
</event>
<event>
 5    1  0.9130022E-009  0.3733439E+03  0.7957747E-01  0.3480663E+00
         13   -1    0    0    0    0  0.00000000000E+00  0.00000000000E+00  0.14999999963E+04  0.15000000000E+04  0.10566000000E+00 0. -1.
        994   -1    0    0    0    0 -0.00000000000E+00 -0.00000000000E+00  0.11368683772E-12  0.17120000000E+03  0.17120000000E+03 0.  0.
         13    1    1    2    0    0  0.95416351476E+01 -0.74068579423E+02  0.30405785614E+03  0.31309485512E+03  0.10566000000E+00 0. -1.
        994    1    1    2    0    0 -0.81227070757E+01  0.69303542336E+02  0.24362561308E+02  0.18647234043E+03  0.17120000000E+03 0.  0.
        998    1    1    2    0    0 -0.14189280719E+01  0.47650370866E+01  0.11715795788E+04  0.11716328044E+04  0.10000000000E+02 0. -1.
</event>
<event>
 5    1  0.9130022E-009  0.3787092E+03  0.7957747E-01  0.3456798E+00
         13   -1    0    0    0    0  0.00000000000E+00  0.00000000000E+00  0.14999999963E+04  0.15000000000E+04  0.10566000000E+00 0.  1.
        994   -1    0    0    0    0 -0.00000000000E+00 -0.00000000000E+00  0.11368683772E-12  0.17120000000E+03  0.17120000000E+03 0.  0.
         13    1    1    2    0    0 -0.95416926487E+01 -0.86285971343E+01  0.15058016672E+02  0.19805343148E+02  0.10566000000E+00 0.  1.
        994    1    1    2    0    0  0.10800318872E+02  0.80630838904E+01  0.53962521836E+01  0.17181449225E+03  0.17120000000E+03 0.  0.
        998    1    1    2    0    0 -0.12586262231E+01  0.56551324392E+00  0.14795457274E+04  0.14795801646E+04  0.10000000000E+02 0.  1.
</event>
<event>
 5    1  0.9130022E-009  0.3822488E+03  0.7957747E-01  0.3441425E+00
         13   -1    0    0    0    0  0.00000000000E+00  0.00000000000E+00  0.14999999963E+04  0.15000000000E+04  0.10566000000E+00 0.  1.
        994   -1    0    0    0    0 -0.00000000000E+00 -0.00000000000E+00  0.11368683772E-12  0.17120000000E+03  0.17120000000E+03 0.  0.
         13    1    1    2    0    0 -0.87327903525E+01  0.20750624020E+02  0.86733282728E+02  0.89607608613E+02  0.10566000000E+00 0.  1.
        994    1    1    2    0    0  0.11713186134E+02 -0.29339254769E+01  0.34862271331E+01  0.17166071312E+03  0.17120000000E+03 0.  0.
        998    1    1    2    0    0 -0.29803957815E+01 -0.17816698543E+02  0.14097804864E+04  0.14099316783E+04  0.10000000000E+02 0.  1.
</event>
<event>
 5    1  0.9130022E-009  0.3793948E+03  0.7957747E-01  0.3453798E+00
         13   -1    0    0    0    0  0.00000000000E+00  0.00000000000E+00  0.14999999963E+04  0.15000000000E+04  0.10566000000E+00 0.  1.
        994   -1    0    0    0    0 -0.00000000000E+00 -0.00000000000E+00  0.11368683772E-12  0.17120000000E+03  0.17120000000E+03 0.  0.
         13    1    1    2    0    0  0.22579714493E+02 -0.12318232932E+02  0.68391614474E+02  0.73068505278E+02  0.10566000000E+00 0.  1.
        994    1    1    2    0    0 -0.17460926319E+02  0.34268961741E+02  0.94098177955E+01  0.17571918039E+03  0.17120000000E+03 0.  0.
        998    1    1    2    0    0 -0.51187881733E+01 -0.21950728809E+02  0.14221985640E+04  0.14224123143E+04  0.10000000000E+02 0.  1.
</event>
<event>
 5    1  0.9130022E-009  0.3779081E+03  0.7957747E-01  0.3460318E+00
         13   -1    0    0    0    0  0.00000000000E+00  0.00000000000E+00  0.14999999963E+04  0.15000000000E+04  0.10566000000E+00 0.  1.
        994   -1    0    0    0    0 -0.00000000000E+00 -0.00000000000E+00  0.11368683772E-12  0.17120000000E+03  0.17120000000E+03 0.  0.
         13    1    1    2    0    0  0.24345719386E+02 -0.10729405651E+02  0.65809058608E+02  0.70983642883E+02  0.10566000000E+00 0.  1.
        994    1    1    2    0    0 -0.18960966618E+02  0.29178600632E+01  0.64326872530E+01  0.17239156484E+03  0.17120000000E+03 0.  0.
        998    1    1    2    0    0 -0.53847527672E+01  0.78115455881E+01  0.14277582504E+04  0.14278247923E+04  0.10000000000E+02 0.  1.
</event>
<event>
 5    1  0.9130022E-009  0.3810336E+03  0.7957747E-01  0.3446670E+00
         13   -1    0    0    0    0  0.00000000000E+00  0.00000000000E+00  0.14999999963E+04  0.15000000000E+04  0.10566000000E+00 0.  1.
        994   -1    0    0    0    0 -0.00000000000E+00 -0.00000000000E+00  0.11368683772E-12  0.17120000000E+03  0.17120000000E+03 0.  0.
         13    1    1    2    0    0  0.56468667764E+01 -0.91094007566E+01  0.14362864453E+02  0.17921253468E+02  0.10566000000E+00 0.  1.
        994    1    1    2    0    0 -0.42635859799E+01  0.65413301923E+01  0.38154305291E+01  0.17142043249E+03  0.17120000000E+03 0.  0.
        998    1    1    2    0    0 -0.13832807966E+01  0.25680705643E+01  0.14818217013E+04  0.14818583140E+04  0.10000000000E+02 0.  1.
</event>
<event>
 5    1  0.9130022E-009  0.3702767E+03  0.7957747E-01  0.3494620E+00
         13   -1    0    0    0    0  0.00000000000E+00  0.00000000000E+00  0.14999999963E+04  0.15000000000E+04  0.10566000000E+00 0.  1.
        994   -1    0    0    0    0 -0.00000000000E+00 -0.00000000000E+00  0.11368683772E-12  0.17120000000E+03  0.17120000000E+03 0.  0.
         13    1    1    2    0    0 -0.34099771347E+01  0.68358662302E+02  0.18151641967E+03  0.19399164010E+03  0.10566000000E+00 0.  1.
        994    1    1    2    0    0  0.37871796362E+01 -0.70114439517E+02  0.28543886896E+02  0.18722865923E+03  0.17120000000E+03 0.  0.
        998    1    1    2    0    0 -0.37720250155E+00  0.17557772158E+01  0.12899396897E+04  0.12899797007E+04  0.10000000000E+02 0.  0.
</event>
<event>
 5    1  0.9130022E-009  0.3786593E+03  0.7957747E-01  0.3457017E+00
         13   -1    0    0    0    0  0.00000000000E+00  0.00000000000E+00  0.14999999963E+04  0.15000000000E+04  0.10566000000E+00 0.  1.
        994   -1    0    0    0    0 -0.00000000000E+00 -0.00000000000E+00  0.11368683772E-12  0.17120000000E+03  0.17120000000E+03 0.  0.
         13    1    1    2    0    0  0.32417134899E+02 -0.12390878626E+02  0.31811294262E+02  0.47078382670E+02  0.10566000000E+00 0.  1.
        994    1    1    2    0    0 -0.24220532370E+02  0.29660794698E+02  0.20898734424E+02  0.17667086356E+03  0.17120000000E+03 0.  0.
        998    1    1    2    0    0 -0.81966025291E+01 -0.17269916072E+02  0.14472899676E+04  0.14474507538E+04  0.10000000000E+02 0.  1.
</event>
<event>
 5    1  0.9130022E-009  0.3830334E+03  0.7957747E-01  0.3438056E+00
         13   -1    0    0    0    0  0.00000000000E+00  0.00000000000E+00  0.14999999963E+04  0.15000000000E+04  0.10566000000E+00 0.  1.
        994   -1    0    0    0    0 -0.00000000000E+00 -0.00000000000E+00  0.11368683772E-12  0.17120000000E+03  0.17120000000E+03 0.  0.
         13    1    1    2    0    0 -0.18333751649E+02 -0.10862572938E+02  0.88602892354E+02  0.91129609007E+02  0.10566000000E+00 0.  1.
        994    1    1    2    0    0  0.82912492153E+01  0.34979580781E+01  0.28777593234E+01  0.17146049698E+03  0.17120000000E+03 0.  0.
        998    1    1    2    0    0  0.10042502433E+02  0.73646148595E+01  0.14085193446E+04  0.14086098940E+04  0.10000000000E+02 0.  1.
</event>
<event>
 5    1  0.9130022E-009  0.3832612E+03  0.7957747E-01  0.3437080E+00
         13   -1    0    0    0    0  0.00000000000E+00  0.00000000000E+00  0.14999999963E+04  0.15000000000E+04  0.10566000000E+00 0. -1.
        994   -1    0    0    0    0 -0.00000000000E+00 -0.00000000000E+00  0.11368683772E-12  0.17120000000E+03  0.17120000000E+03 0.  0.
         13    1    1    2    0    0 -0.10633917335E+02  0.47319160421E+01  0.25636718369E+02  0.28155349759E+02  0.10566000000E+00 0. -1.
        994    1    1    2    0    0  0.13079986778E+02 -0.82727807358E+01  0.32884869158E+01  0.17192957599E+03  0.17120000000E+03 0.  0.
        998    1    1    2    0    0 -0.24460694435E+01  0.35408646937E+01  0.14710747910E+04  0.14711150742E+04  0.10000000000E+02 0. -1.
</event>
<event>
 5    1  0.9130022E-009  0.3839770E+03  0.7957747E-01  0.3434023E+00
         13   -1    0    0    0    0  0.00000000000E+00  0.00000000000E+00  0.14999999963E+04  0.15000000000E+04  0.10566000000E+00 0. -1.
        994   -1    0    0    0    0 -0.00000000000E+00 -0.00000000000E+00  0.11368683772E-12  0.17120000000E+03  0.17120000000E+03 0.  0.
         13    1    1    2    0    0 -0.12261999262E+02  0.69955801797E+01  0.51530244110E+02  0.53429130538E+02  0.10566000000E+00 0. -1.
        994    1    1    2    0    0 -0.62948035936E+01  0.14040908571E+02  0.29205398669E+01  0.17191492436E+03  0.17120000000E+03 0.  0.
        998    1    1    2    0    0  0.18556802856E+02 -0.21036488751E+02  0.14455492123E+04  0.14458559451E+04  0.10000000000E+02 0. -1.
</event>
<event>
 5    1  0.9130022E-009  0.3687663E+03  0.7957747E-01  0.3501580E+00
         13   -1    0    0    0    0  0.00000000000E+00  0.00000000000E+00  0.14999999963E+04  0.15000000000E+04  0.10566000000E+00 0. -1.
        994   -1    0    0    0    0 -0.00000000000E+00 -0.00000000000E+00  0.11368683772E-12  0.17120000000E+03  0.17120000000E+03 0.  0.
         13    1    1    2    0    0  0.38838660772E+02 -0.64880536088E+02  0.23171732663E+03  0.24374342280E+03  0.10566000000E+00 0. -1.
        994    1    1    2    0    0 -0.30526471637E+02  0.70361737765E+02  0.31055207113E+02  0.19014864054E+03  0.17120000000E+03 0.  0.
        998    1    1    2    0    0 -0.83121891354E+01 -0.54812016771E+01  0.12372274625E+04  0.12373079367E+04  0.10000000000E+02 0.  0.
</event>
<event>
 5    1  0.9130022E-009  0.4034156E+03  0.7957747E-01  0.3355137E+00
         13   -1    0    0    0    0  0.00000000000E+00  0.00000000000E+00  0.14999999963E+04  0.15000000000E+04  0.10566000000E+00 0.  1.
        994   -1    0    0    0    0 -0.00000000000E+00 -0.00000000000E+00  0.11368683772E-12  0.17120000000E+03  0.17120000000E+03 0.  0.
         13    1    1    2    0    0  0.11009626522E+03 -0.10476121543E+03  0.32411235889E+03  0.35797336804E+03  0.10566000000E+00 0.  1.
        994    1    1    2    0    0 -0.91424204650E+02  0.88463050730E+02  0.97521347771E+02  0.23452920887E+03  0.17120000000E+03 0.  0.
        998    1    1    2    0    0 -0.18672060566E+02  0.16298164698E+02  0.10783662896E+04  0.10786974231E+04  0.10000000000E+02 0.  1.
</event>
<event>
 5    1  0.9130022E-009  0.3855104E+03  0.7957747E-01  0.3427510E+00
         13   -1    0    0    0    0  0.00000000000E+00  0.00000000000E+00  0.14999999963E+04  0.15000000000E+04  0.10566000000E+00 0.  1.
        994   -1    0    0    0    0 -0.00000000000E+00 -0.00000000000E+00  0.11368683772E-12  0.17120000000E+03  0.17120000000E+03 0.  0.
         13    1    1    2    0    0 -0.14304601511E+02 -0.63759561139E+01  0.88037378500E+02  0.89419604215E+02  0.10566000000E+00 0.  1.
        994    1    1    2    0    0  0.84253824020E+01  0.11370801956E+02  0.20347799298E+01  0.17179599103E+03  0.17120000000E+03 0.  0.
        998    1    1    2    0    0  0.58792191087E+01 -0.49948458422E+01  0.14099278378E+04  0.14099844048E+04  0.10000000000E+02 0.  1.
</event>
<event>
 5    1  0.9130022E-009  0.3935420E+03  0.7957747E-01  0.3394233E+00
         13   -1    0    0    0    0  0.00000000000E+00  0.00000000000E+00  0.14999999963E+04  0.15000000000E+04  0.10566000000E+00 0. -1.
        994   -1    0    0    0    0 -0.00000000000E+00 -0.00000000000E+00  0.11368683772E-12  0.17120000000E+03  0.17120000000E+03 0.  0.
         13    1    1    2    0    0  0.22876517070E+02 -0.36657265444E+02  0.28903383506E+02  0.51985641145E+02  0.10566000000E+00 0. -1.
        994    1    1    2    0    0 -0.81842817682E+01  0.48001148154E+02  0.33073862871E+02  0.18103704896E+03  0.17120000000E+03 0.  0.
        998    1    1    2    0    0 -0.14692235302E+02 -0.11343882709E+02  0.14380227499E+04  0.14381773099E+04  0.10000000000E+02 0. -1.
</event>
<event>
 5    1  0.9130022E-009  0.3727629E+03  0.7957747E-01  0.3483289E+00
         13   -1    0    0    0    0  0.00000000000E+00  0.00000000000E+00  0.14999999963E+04  0.15000000000E+04  0.10566000000E+00 0. -1.
        994   -1    0    0    0    0 -0.00000000000E+00 -0.00000000000E+00  0.11368683772E-12  0.17120000000E+03  0.17120000000E+03 0.  0.
         13    1    1    2    0    0  0.18404712639E+02  0.20047708006E+02  0.44141176116E+02  0.51856519711E+02  0.10566000000E+00 0. -1.
        994    1    1    2    0    0  0.55363258602E+01 -0.30164433152E+02  0.11060240175E+02  0.17427654129E+03  0.17120000000E+03 0.  0.
        998    1    1    2    0    0 -0.23941038499E+02  0.10116725146E+02  0.14447985800E+04  0.14450669390E+04  0.10000000000E+02 0.  1.
</event>
<event>
 5    1  0.9130022E-009  0.3839232E+03  0.7957747E-01  0.3434252E+00
         13   -1    0    0    0    0  0.00000000000E+00  0.00000000000E+00  0.14999999963E+04  0.15000000000E+04  0.10566000000E+00 0.  1.
        994   -1    0    0    0    0 -0.00000000000E+00 -0.00000000000E+00  0.11368683772E-12  0.17120000000E+03  0.17120000000E+03 0.  0.
         13    1    1    2    0    0 -0.18599360887E+02 -0.10270734767E+02  0.99788473711E+02  0.10202536385E+03  0.10566000000E+00 0.  1.
        994    1    1    2    0    0  0.22369402458E+02 -0.78914679603E+00  0.38208899830E+01  0.17269931129E+03  0.17120000000E+03 0.  0.
        998    1    1    2    0    0 -0.37700415715E+01  0.11059881563E+02  0.13963906326E+04  0.13964753249E+04  0.10000000000E+02 0.  1.
</event>
<event>
 5    1  0.9130022E-009  0.3784064E+03  0.7957747E-01  0.3458127E+00
         13   -1    0    0    0    0  0.00000000000E+00  0.00000000000E+00  0.14999999963E+04  0.15000000000E+04  0.10566000000E+00 0.  1.
        994   -1    0    0    0    0 -0.00000000000E+00 -0.00000000000E+00  0.11368683772E-12  0.17120000000E+03  0.17120000000E+03 0.  0.
         13    1    1    2    0    0 -0.87049803651E+01 -0.40430473385E+02  0.14615180286E+03  0.15189062020E+03  0.10566000000E+00 0.  1.
        994    1    1    2    0    0 -0.10269258043E+02  0.56321788550E+02  0.16034655928E+02  0.18122955531E+03  0.17120000000E+03 0.  0.
        998    1    1    2    0    0  0.18974238408E+02 -0.15891315165E+02  0.13378135375E+04  0.13380798245E+04  0.10000000000E+02 0.  1.
</event>
<event>
 5    1  0.9130022E-009  0.3782136E+03  0.7957747E-01  0.3458974E+00
         13   -1    0    0    0    0  0.00000000000E+00  0.00000000000E+00  0.14999999963E+04  0.15000000000E+04  0.10566000000E+00 0.  1.
        994   -1    0    0    0    0 -0.00000000000E+00 -0.00000000000E+00  0.11368683772E-12  0.17120000000E+03  0.17120000000E+03 0.  0.
         13    1    1    2    0    0 -0.11135958502E+02 -0.59527225127E+01  0.13947757106E+02  0.18814769980E+02  0.10566000000E+00 0.  1.
        994    1    1    2    0    0  0.60330841197E+01 -0.13891498719E+02  0.58093304264E+01  0.17196674144E+03  0.17120000000E+03 0.  0.
        998    1    1    2    0    0  0.51028743823E+01  0.19844221231E+02  0.14802429087E+04  0.14804184886E+04  0.10000000000E+02 0.  1.
</event>
<event>
 5    1  0.9130022E-009  0.3709398E+03  0.7957747E-01  0.3491583E+00
         13   -1    0    0    0    0  0.00000000000E+00  0.00000000000E+00  0.14999999963E+04  0.15000000000E+04  0.10566000000E+00 0.  1.
        994   -1    0    0    0    0 -0.00000000000E+00 -0.00000000000E+00  0.11368683772E-12  0.17120000000E+03  0.17120000000E+03 0.  0.
         13    1    1    2    0    0 -0.34181324333E+02 -0.16243792551E+03  0.74559260979E+03  0.76384736271E+03  0.10566000000E+00 0.  1.
        994    1    1    2    0    0  0.36427354939E+02  0.15704589014E+03  0.10448399779E+03  0.25732607640E+03  0.17120000000E+03 0.  0.
        998    1    1    2    0    0 -0.22460306056E+01  0.53920353622E+01  0.64992338869E+03  0.65002656089E+03  0.10000000000E+02 0. -1.
</event>
<event>
 5    1  0.9130022E-009  0.3689699E+03  0.7957747E-01  0.3500638E+00
         13   -1    0    0    0    0  0.00000000000E+00  0.00000000000E+00  0.14999999963E+04  0.15000000000E+04  0.10566000000E+00 0. -1.
        994   -1    0    0    0    0 -0.00000000000E+00 -0.00000000000E+00  0.11368683772E-12  0.17120000000E+03  0.17120000000E+03 0.  0.
         13    1    1    2    0    0  0.22280053618E+02 -0.80534522041E+02  0.29560471787E+03  0.30718784224E+03  0.10566000000E+00 0. -1.
        994    1    1    2    0    0  0.37541978653E+01  0.81224791262E+02  0.33114871494E+02  0.19239957233E+03  0.17120000000E+03 0.  0.
        998    1    1    2    0    0 -0.26034251484E+02 -0.69026922025E+00  0.11712804069E+04  0.11716125854E+04  0.10000000000E+02 0. -1.
</event>
<event>
 5    1  0.9130022E-009  0.3782686E+03  0.7957747E-01  0.3458732E+00
         13   -1    0    0    0    0  0.00000000000E+00  0.00000000000E+00  0.14999999963E+04  0.15000000000E+04  0.10566000000E+00 0.  1.
        994   -1    0    0    0    0 -0.00000000000E+00 -0.00000000000E+00  0.11368683772E-12  0.17120000000E+03  0.17120000000E+03 0.  0.
         13    1    1    2    0    0  0.32035744363E+02  0.21058475482E+02  0.13195159347E+03  0.13740808742E+03  0.10566000000E+00 0.  1.
        994    1    1    2    0    0 -0.28639980139E+02 -0.29708164395E+02  0.10756317238E+02  0.17643118164E+03  0.17120000000E+03 0.  0.
        998    1    1    2    0    0 -0.33957642240E+01  0.86496889128E+01  0.13572920856E+04  0.13573607309E+04  0.10000000000E+02 0.  1.
</event>
<event>
 5    1  0.9130022E-009  0.3078471E+03  0.7957747E-01  0.3841543E+00
         13   -1    0    0    0    0  0.00000000000E+00  0.00000000000E+00  0.14999999963E+04  0.15000000000E+04  0.10566000000E+00 0. -1.
        994   -1    0    0    0    0 -0.00000000000E+00 -0.00000000000E+00  0.11368683772E-12  0.17120000000E+03  0.17120000000E+03 0.  0.
         13    1    1    2    0    0  0.22723062536E+03 -0.65068096993E+02  0.54778470515E+03  0.59660347695E+03  0.10566000000E+00 0. -1.
        994    1    1    2    0    0 -0.22433108822E+03  0.91274845097E+02  0.30030251785E+03  0.42207413652E+03  0.17120000000E+03 0.  0.
        998    1    1    2    0    0 -0.28995371378E+01 -0.26206748104E+02  0.65191277328E+03  0.65252238653E+03  0.10000000000E+02 0.  1.
</event>
<event>
 5    1  0.9130022E-009  0.3812891E+03  0.7957747E-01  0.3445564E+00
         13   -1    0    0    0    0  0.00000000000E+00  0.00000000000E+00  0.14999999963E+04  0.15000000000E+04  0.10566000000E+00 0.  1.
        994   -1    0    0    0    0 -0.00000000000E+00 -0.00000000000E+00  0.11368683772E-12  0.17120000000E+03  0.17120000000E+03 0.  0.
         13    1    1    2    0    0  0.26800354014E+02  0.10503797161E+02  0.10719312853E+03  0.11099084061E+03  0.10566000000E+00 0.  1.
        994    1    1    2    0    0 -0.25950619774E+02 -0.27650566101E+02  0.82853337435E+01  0.17554508033E+03  0.17120000000E+03 0.  0.
        998    1    1    2    0    0 -0.84973423975E+00  0.17146768940E+02  0.13845215340E+04  0.13846640791E+04  0.10000000000E+02 0.  1.
</event>
<event>
 5    1  0.9130022E-009  0.3791736E+03  0.7957747E-01  0.3454765E+00
         13   -1    0    0    0    0  0.00000000000E+00  0.00000000000E+00  0.14999999963E+04  0.15000000000E+04  0.10566000000E+00 0. -1.
        994   -1    0    0    0    0 -0.00000000000E+00 -0.00000000000E+00  0.11368683772E-12  0.17120000000E+03  0.17120000000E+03 0.  0.
         13    1    1    2    0    0  0.66629634645E+01 -0.10667588946E+02  0.15897328100E+02  0.20271377378E+02  0.10566000000E+00 0. -1.
        994    1    1    2    0    0 -0.54763627213E+01 -0.75208215533E+01  0.48410629539E+01  0.17152092932E+03  0.17120000000E+03 0.  0.
        998    1    1    2    0    0 -0.11866007431E+01  0.18188410500E+02  0.14792616052E+04  0.14794076933E+04  0.10000000000E+02 0. -1.
</event>
<event>
 5    1  0.9130022E-009  0.3726232E+03  0.7957747E-01  0.3483922E+00
         13   -1    0    0    0    0  0.00000000000E+00  0.00000000000E+00  0.14999999963E+04  0.15000000000E+04  0.10566000000E+00 0. -1.
        994   -1    0    0    0    0 -0.00000000000E+00 -0.00000000000E+00  0.11368683772E-12  0.17120000000E+03  0.17120000000E+03 0.  0.
         13    1    1    2    0    0 -0.38130097681E+02  0.36556267947E+01  0.55132158690E+02  0.67132957944E+02  0.10566000000E+00 0. -1.
        994    1    1    2    0    0  0.25416069063E+02  0.10721490188E+02  0.15022112033E+02  0.17405755016E+03  0.17120000000E+03 0.  0.
        998    1    1    2    0    0  0.12714028618E+02 -0.14377116983E+02  0.14298457256E+04  0.14300094919E+04  0.10000000000E+02 0. -1.
</event>
<event>
 5    1  0.9130022E-009  0.3754129E+03  0.7957747E-01  0.3471378E+00
         13   -1    0    0    0    0  0.00000000000E+00  0.00000000000E+00  0.14999999963E+04  0.15000000000E+04  0.10566000000E+00 0.  1.
        994   -1    0    0    0    0 -0.00000000000E+00 -0.00000000000E+00  0.11368683772E-12  0.17120000000E+03  0.17120000000E+03 0.  0.
         13    1    1    2    0    0 -0.53089950637E+01  0.10883951133E+02 -0.11396357161E+01  0.12163706444E+02  0.10566000000E+00 0.  1.
        994    1    1    2    0    0  0.17971376633E+01 -0.13897294749E+02  0.14530165477E+02  0.17238599193E+03  0.17120000000E+03 0.  0.
        998    1    1    2    0    0  0.35118574003E+01  0.30133436152E+01  0.14866094665E+04  0.14866503016E+04  0.10000000000E+02 0.  1.
</event>
<event>
 5    1  0.9130022E-009  0.3811232E+03  0.7957747E-01  0.3446282E+00
         13   -1    0    0    0    0  0.00000000000E+00  0.00000000000E+00  0.14999999963E+04  0.15000000000E+04  0.10566000000E+00 0.  1.
        994   -1    0    0    0    0 -0.00000000000E+00 -0.00000000000E+00  0.11368683772E-12  0.17120000000E+03  0.17120000000E+03 0.  0.
         13    1    1    2    0    0 -0.22404516491E+02 -0.60249677836E+01  0.72744110025E+02  0.76354301145E+02  0.10566000000E+00 0.  1.
        994    1    1    2    0    0  0.18048132434E+02  0.56194310057E+01  0.47581680728E+01  0.17230610335E+03  0.17120000000E+03 0.  0.
        998    1    1    2    0    0  0.43563840566E+01  0.40553677785E+00  0.14224977182E+04  0.14225395955E+04  0.10000000000E+02 0.  1.
</event>
<event>
 5    1  0.9130022E-009  0.3820191E+03  0.7957747E-01  0.3442414E+00
         13   -1    0    0    0    0  0.00000000000E+00  0.00000000000E+00  0.14999999963E+04  0.15000000000E+04  0.10566000000E+00 0.  1.
        994   -1    0    0    0    0 -0.00000000000E+00 -0.00000000000E+00  0.11368683772E-12  0.17120000000E+03  0.17120000000E+03 0.  0.
         13    1    1    2    0    0 -0.13069237072E+02 -0.10696241271E+01  0.26677567647E+02  0.29726298677E+02  0.10566000000E+00 0.  1.
        994    1    1    2    0    0  0.64023342438E+01 -0.64774037805E+01  0.33928834705E+01  0.17147564930E+03  0.17120000000E+03 0.  0.
        998    1    1    2    0    0  0.66669028286E+01  0.75470279076E+01  0.14699295452E+04  0.14699980520E+04  0.10000000000E+02 0.  1.
</event>
<event>
 5    1  0.9130022E-009  0.3837587E+03  0.7957747E-01  0.3434954E+00
         13   -1    0    0    0    0  0.00000000000E+00  0.00000000000E+00  0.14999999963E+04  0.15000000000E+04  0.10566000000E+00 0. -1.
        994   -1    0    0    0    0 -0.00000000000E+00 -0.00000000000E+00  0.11368683772E-12  0.17120000000E+03  0.17120000000E+03 0.  0.
         13    1    1    2    0    0 -0.14573757683E+02 -0.99681417306E+01  0.68907085893E+02  0.71133367085E+02  0.10566000000E+00 0. -1.
        994    1    1    2    0    0  0.18019635626E+02 -0.60355125813E+01  0.34410046109E+01  0.17228585314E+03  0.17120000000E+03 0.  0.
        998    1    1    2    0    0 -0.34458779432E+01  0.16003654312E+02  0.14276519058E+04  0.14277807798E+04  0.10000000000E+02 0. -1.
</event>
<event>
 5    1  0.9130022E-009  0.3847647E+03  0.7957747E-01  0.3430671E+00
         13   -1    0    0    0    0  0.00000000000E+00  0.00000000000E+00  0.14999999963E+04  0.15000000000E+04  0.10566000000E+00 0. -1.
        994   -1    0    0    0    0 -0.00000000000E+00 -0.00000000000E+00  0.11368683772E-12  0.17120000000E+03  0.17120000000E+03 0.  0.
         13    1    1    2    0    0 -0.18621578027E+02  0.38666879271E+01  0.10960178859E+03  0.11123973062E+03  0.10566000000E+00 0. -1.
        994    1    1    2    0    0  0.26302390419E+01 -0.12405987705E+02  0.22764812683E+01  0.17168415493E+03  0.17120000000E+03 0.  0.
        998    1    1    2    0    0  0.15991338985E+02  0.85392997779E+01  0.13881217264E+04  0.13882761144E+04  0.10000000000E+02 0. -1.
</event>
<event>
 5    1  0.9130022E-009  0.3821407E+03  0.7957747E-01  0.3441890E+00
         13   -1    0    0    0    0  0.00000000000E+00  0.00000000000E+00  0.14999999963E+04  0.15000000000E+04  0.10566000000E+00 0.  1.
        994   -1    0    0    0    0 -0.00000000000E+00 -0.00000000000E+00  0.11368683772E-12  0.17120000000E+03  0.17120000000E+03 0.  0.
         13    1    1    2    0    0  0.24325297713E+02  0.15320333379E+02  0.13776732888E+03  0.14073478886E+03  0.10566000000E+00 0.  1.
        994    1    1    2    0    0 -0.18651503087E+02  0.39491249194E+01  0.42638730000E+01  0.17231104076E+03  0.17120000000E+03 0.  0.
        998    1    1    2    0    0 -0.56737946266E+01 -0.19269458298E+02  0.13579687944E+04  0.13581541704E+04  0.10000000000E+02 0.  1.
</event>
<event>
 5    1  0.9130022E-009  0.3809710E+03  0.7957747E-01  0.3446941E+00
         13   -1    0    0    0    0  0.00000000000E+00  0.00000000000E+00  0.14999999963E+04  0.15000000000E+04  0.10566000000E+00 0.  1.
        994   -1    0    0    0    0 -0.00000000000E+00 -0.00000000000E+00  0.11368683772E-12  0.17120000000E+03  0.17120000000E+03 0.  0.
         13    1    1    2    0    0 -0.87012661673E+01 -0.22141465091E+02  0.85004923040E+02  0.88271199235E+02  0.10566000000E+00 0.  1.
        994    1    1    2    0    0  0.16313047774E+02 -0.12597923394E+02  0.50606738663E+01  0.17251050293E+03  0.17120000000E+03 0.  0.
        998    1    1    2    0    0 -0.76117816069E+01  0.34739388486E+02  0.14099343994E+04  0.14104182978E+04  0.10000000000E+02 0.  1.
</event>
<event>
 5    1  0.9130022E-009  0.3852917E+03  0.7957747E-01  0.3428436E+00
         13   -1    0    0    0    0  0.00000000000E+00  0.00000000000E+00  0.14999999963E+04  0.15000000000E+04  0.10566000000E+00 0. -1.
        994   -1    0    0    0    0 -0.00000000000E+00 -0.00000000000E+00  0.11368683772E-12  0.17120000000E+03  0.17120000000E+03 0.  0.
         13    1    1    2    0    0  0.15957837057E+02  0.42013925393E+01  0.97210114225E+02  0.98600820151E+02  0.10566000000E+00 0. -1.
        994    1    1    2    0    0 -0.14885730732E+01 -0.98995200695E+01  0.18147330878E+01  0.17150203965E+03  0.17120000000E+03 0.  0.
        998    1    1    2    0    0 -0.14469263984E+02  0.56981275301E+01  0.14009751490E+04  0.14010971402E+04  0.10000000000E+02 0. -1.
</event>
<event>
 5    1  0.9130022E-009  0.3808388E+03  0.7957747E-01  0.3447514E+00
         13   -1    0    0    0    0  0.00000000000E+00  0.00000000000E+00  0.14999999963E+04  0.15000000000E+04  0.10566000000E+00 0. -1.
        994   -1    0    0    0    0 -0.00000000000E+00 -0.00000000000E+00  0.11368683772E-12  0.17120000000E+03  0.17120000000E+03 0.  0.
         13    1    1    2    0    0 -0.35220690829E+02  0.17717506554E+02  0.22882647135E+03  0.23219813147E+03  0.10566000000E+00 0. -1.
        994    1    1    2    0    0  0.26866873002E+02  0.23219529585E+02  0.79254619560E+01  0.17502350804E+03  0.17120000000E+03 0.  0.
        998    1    1    2    0    0  0.83538178268E+01 -0.40937036139E+02  0.12632480630E+04  0.12639783605E+04  0.10000000000E+02 0. -1.
</event>
<event>
 5    1  0.9130022E-009  0.3843336E+03  0.7957747E-01  0.3432503E+00
         13   -1    0    0    0    0  0.00000000000E+00  0.00000000000E+00  0.14999999963E+04  0.15000000000E+04  0.10566000000E+00 0.  1.
        994   -1    0    0    0    0 -0.00000000000E+00 -0.00000000000E+00  0.11368683772E-12  0.17120000000E+03  0.17120000000E+03 0.  0.
         13    1    1    2    0    0  0.11041549698E+02 -0.40804687321E+01  0.34154938931E+02  0.36126680753E+02  0.10566000000E+00 0.  1.
        994    1    1    2    0    0 -0.12877521556E+02  0.23785753515E+01  0.25267501038E+01  0.17171870209E+03  0.17120000000E+03 0.  0.
        998    1    1    2    0    0  0.18359718586E+01  0.17018933806E+01  0.14633183072E+04  0.14633546172E+04  0.10000000000E+02 0.  1.
</event>
<event>
 5    1  0.9130022E-009  0.3846059E+03  0.7957747E-01  0.3431346E+00
         13   -1    0    0    0    0  0.00000000000E+00  0.00000000000E+00  0.14999999963E+04  0.15000000000E+04  0.10566000000E+00 0.  1.
        994   -1    0    0    0    0 -0.00000000000E+00 -0.00000000000E+00  0.11368683772E-12  0.17120000000E+03  0.17120000000E+03 0.  0.
         13    1    1    2    0    0  0.49111628951E+01  0.16552508117E+02  0.76056808645E+02  0.77992014663E+02  0.10566000000E+00 0.  1.
        994    1    1    2    0    0 -0.19839612753E+02 -0.17192741096E+02  0.40986829780E+01  0.17324964584E+03  0.17120000000E+03 0.  0.
        998    1    1    2    0    0  0.14928449858E+02  0.64023297961E+00  0.14198445047E+04  0.14199583395E+04  0.10000000000E+02 0.  1.
</event>
<event>
 5    1  0.9130022E-009  0.3695439E+03  0.7957747E-01  0.3497989E+00
         13   -1    0    0    0    0  0.00000000000E+00  0.00000000000E+00  0.14999999963E+04  0.15000000000E+04  0.10566000000E+00 0.  1.
        994   -1    0    0    0    0 -0.00000000000E+00 -0.00000000000E+00  0.11368683772E-12  0.17120000000E+03  0.17120000000E+03 0.  0.
         13    1    1    2    0    0  0.85627867115E+01 -0.56287755607E+02  0.16721750995E+03  0.17664467030E+03  0.10566000000E+00 0.  1.
        994    1    1    2    0    0 -0.15696828280E+02  0.32293915917E+02  0.13985733709E+02  0.17548312788E+03  0.17120000000E+03 0.  0.
        998    1    1    2    0    0  0.71340415683E+01  0.23993839690E+02  0.13187967526E+04  0.13190722018E+04  0.10000000000E+02 0.  1.
</event>
<event>
 5    1  0.9130022E-009  0.3743575E+03  0.7957747E-01  0.3476101E+00
         13   -1    0    0    0    0  0.00000000000E+00  0.00000000000E+00  0.14999999963E+04  0.15000000000E+04  0.10566000000E+00 0. -1.
        994   -1    0    0    0    0 -0.00000000000E+00 -0.00000000000E+00  0.11368683772E-12  0.17120000000E+03  0.17120000000E+03 0.  0.
         13    1    1    2    0    0  0.76725514065E+01  0.30157106205E+02  0.31142291430E+02  0.44024681478E+02  0.10566000000E+00 0. -1.
        994    1    1    2    0    0 -0.34731535565E+02 -0.13933293582E+02  0.18249900487E+02  0.17618999716E+03  0.17120000000E+03 0.  0.
        998    1    1    2    0    0  0.27058984159E+02 -0.16223812623E+02  0.14506078044E+04  0.14509853214E+04  0.10000000000E+02 0. -1.
</event>
<event>
 5    1  0.9130022E-009  0.3807943E+03  0.7957747E-01  0.3447707E+00
         13   -1    0    0    0    0  0.00000000000E+00  0.00000000000E+00  0.14999999963E+04  0.15000000000E+04  0.10566000000E+00 0.  1.
        994   -1    0    0    0    0 -0.00000000000E+00 -0.00000000000E+00  0.11368683772E-12  0.17120000000E+03  0.17120000000E+03 0.  0.
         13    1    1    2    0    0  0.26003899512E+02 -0.27447209808E+02  0.18292202880E+03  0.18678873601E+03  0.10566000000E+00 0.  1.
        994    1    1    2    0    0 -0.19196668525E+02  0.19418827437E+02  0.62226477628E+01  0.17347554377E+03  0.17120000000E+03 0.  0.
        998    1    1    2    0    0 -0.68072309879E+01  0.80283823717E+01  0.13108553197E+04  0.13109357202E+04  0.10000000000E+02 0.  1.
</event>
<event>
 5    1  0.9130022E-009  0.3845214E+03  0.7957747E-01  0.3431704E+00
         13   -1    0    0    0    0  0.00000000000E+00  0.00000000000E+00  0.14999999963E+04  0.15000000000E+04  0.10566000000E+00 0. -1.
        994   -1    0    0    0    0 -0.00000000000E+00 -0.00000000000E+00  0.11368683772E-12  0.17120000000E+03  0.17120000000E+03 0.  0.
         13    1    1    2    0    0 -0.10519432205E+02 -0.34351552509E+01  0.32193394742E+02  0.34042393784E+02  0.10566000000E+00 0. -1.
        994    1    1    2    0    0  0.89176265696E+01  0.14716882002E+01  0.21370326954E+01  0.17145173326E+03  0.17120000000E+03 0.  0.
        998    1    1    2    0    0  0.16018056350E+01  0.19634670507E+01  0.14656695688E+04  0.14657058730E+04  0.10000000000E+02 0. -1.
</event>
<event>
 5    1  0.9130022E-009  0.3847758E+03  0.7957747E-01  0.3430624E+00
         13   -1    0    0    0    0  0.00000000000E+00  0.00000000000E+00  0.14999999963E+04  0.15000000000E+04  0.10566000000E+00 0. -1.
        994   -1    0    0    0    0 -0.00000000000E+00 -0.00000000000E+00  0.11368683772E-12  0.17120000000E+03  0.17120000000E+03 0.  0.
         13    1    1    2    0    0  0.57952232919E+00 -0.17408691838E+02  0.86602081236E+02  0.88336459269E+02  0.10566000000E+00 0. -1.
        994    1    1    2    0    0  0.10502158320E+01  0.11962448413E+02  0.22162013377E+01  0.17163494596E+03  0.17120000000E+03 0.  0.
        998    1    1    2    0    0 -0.16297381612E+01  0.54462434255E+01  0.14111817137E+04  0.14112285948E+04  0.10000000000E+02 0. -1.
</event>
<event>
 5    1  0.9130022E-009  0.3824124E+03  0.7957747E-01  0.3440721E+00
         13   -1    0    0    0    0  0.00000000000E+00  0.00000000000E+00  0.14999999963E+04  0.15000000000E+04  0.10566000000E+00 0.  1.
        994   -1    0    0    0    0 -0.00000000000E+00 -0.00000000000E+00  0.11368683772E-12  0.17120000000E+03  0.17120000000E+03 0.  0.
         13    1    1    2    0    0 -0.16710127167E+02 -0.47375805356E+01  0.50313353252E+02  0.53227039169E+02  0.10566000000E+00 0.  1.
        994    1    1    2    0    0  0.10542511889E+02  0.11205789121E+02  0.37057696508E+01  0.17192988977E+03  0.17120000000E+03 0.  0.
        998    1    1    2    0    0  0.61676152777E+01 -0.64682085854E+01  0.14459808734E+04  0.14460430711E+04  0.10000000000E+02 0.  1.
</event>
<event>
 5    1  0.9130022E-009  0.3781722E+03  0.7957747E-01  0.3459156E+00
         13   -1    0    0    0    0  0.00000000000E+00  0.00000000000E+00  0.14999999963E+04  0.15000000000E+04  0.10566000000E+00 0.  1.
        994   -1    0    0    0    0 -0.00000000000E+00 -0.00000000000E+00  0.11368683772E-12  0.17120000000E+03  0.17120000000E+03 0.  0.
         13    1    1    2    0    0  0.15320904902E+02  0.10986570105E+02  0.36566928115E+02  0.41141053043E+02  0.10566000000E+00 0.  1.
        994    1    1    2    0    0  0.18158808084E+02  0.84016432289E+01  0.64062109303E+01  0.17248422959E+03  0.17120000000E+03 0.  0.
        998    1    1    2    0    0 -0.33479712986E+02 -0.19388213334E+02  0.14570268572E+04  0.14575747174E+04  0.10000000000E+02 0.  1.
</event>
<event>
 5    1  0.9672260E-009  0.3858406E+03  0.7957747E-01  0.3426115E+00
         13   -1    0    0    0    0  0.00000000000E+00  0.00000000000E+00  0.14999999963E+04  0.15000000000E+04  0.10566000000E+00 0. -1.
        994   -1    0    0    0    0 -0.00000000000E+00 -0.00000000000E+00  0.11368683772E-12  0.17120000000E+03  0.17120000000E+03 0.  0.
         13    1    1    2    0    0 -0.12235987414E+02  0.54018715651E+01  0.72796692570E+02  0.74015330963E+02  0.10566000000E+00 0. -1.
        994    1    1    2    0    0  0.76598655155E+01 -0.11750233878E+02  0.18588887111E+01  0.17178369248E+03  0.17120000000E+03 0.  0.
        998    1    1    2    0    0  0.45761218985E+01  0.63483623130E+01  0.14253444150E+04  0.14254009766E+04  0.10000000000E+02 0. -1.
</event>
<event>
 5    1  0.9130022E-009  0.3821188E+03  0.7957747E-01  0.3441984E+00
         13   -1    0    0    0    0  0.00000000000E+00  0.00000000000E+00  0.14999999963E+04  0.15000000000E+04  0.10566000000E+00 0.  1.
        994   -1    0    0    0    0 -0.00000000000E+00 -0.00000000000E+00  0.11368683772E-12  0.17120000000E+03  0.17120000000E+03 0.  0.
         13    1    1    2    0    0  0.10841991242E+02 -0.88502350360E+01  0.30981529641E+02  0.33996202394E+02  0.10566000000E+00 0.  1.
        994    1    1    2    0    0 -0.83911254125E+01  0.22651760288E+01  0.33182189633E+01  0.17145259574E+03  0.17120000000E+03 0.  0.
        998    1    1    2    0    0 -0.24508658296E+01  0.65850590072E+01  0.14657002477E+04  0.14657512019E+04  0.10000000000E+02 0.  1.
</event>
<event>
 5    1  0.9130022E-009  0.3848513E+03  0.7957747E-01  0.3430303E+00
         13   -1    0    0    0    0  0.00000000000E+00  0.00000000000E+00  0.14999999963E+04  0.15000000000E+04  0.10566000000E+00 0. -1.
        994   -1    0    0    0    0 -0.00000000000E+00 -0.00000000000E+00  0.11368683772E-12  0.17120000000E+03  0.17120000000E+03 0.  0.
         13    1    1    2    0    0  0.16914473152E+02  0.11451037123E+02  0.10153801834E+03  0.10357222594E+03  0.10566000000E+00 0. -1.
        994    1    1    2    0    0 -0.13280368841E+02 -0.51218530066E+02  0.10970521250E+02  0.17952575959E+03  0.17120000000E+03 0.  0.
        998    1    1    2    0    0 -0.36341043106E+01  0.39767492943E+02  0.13874914567E+04  0.13881020145E+04  0.10000000000E+02 0. -1.
</event>
<event>
 5    1  0.9130022E-009  0.3846871E+03  0.7957747E-01  0.3431001E+00
         13   -1    0    0    0    0  0.00000000000E+00  0.00000000000E+00  0.14999999963E+04  0.15000000000E+04  0.10566000000E+00 0. -1.
        994   -1    0    0    0    0 -0.00000000000E+00 -0.00000000000E+00  0.11368683772E-12  0.17120000000E+03  0.17120000000E+03 0.  0.
         13    1    1    2    0    0  0.13654723844E+02  0.70602593265E+01  0.65215307786E+02  0.67002584119E+02  0.10566000000E+00 0. -1.
        994    1    1    2    0    0 -0.92061055280E+01 -0.86189239404E+01  0.23093170968E+01  0.17167938483E+03  0.17120000000E+03 0.  0.
        998    1    1    2    0    0 -0.44486183160E+01  0.15586646140E+01  0.14324753714E+04  0.14325180311E+04  0.10000000000E+02 0. -1.
</event>
<event>
 5    1  0.9130022E-009  0.3786374E+03  0.7957747E-01  0.3457113E+00
         13   -1    0    0    0    0  0.00000000000E+00  0.00000000000E+00  0.14999999963E+04  0.15000000000E+04  0.10566000000E+00 0. -1.
        994   -1    0    0    0    0 -0.00000000000E+00 -0.00000000000E+00  0.11368683772E-12  0.17120000000E+03  0.17120000000E+03 0.  0.
         13    1    1    2    0    0  0.59129973416E+02  0.27333857923E+01  0.28931276285E+03  0.29530613110E+03  0.10566000000E+00 0. -1.
        994    1    1    2    0    0 -0.61511099630E+02  0.90474973651E+01  0.17914531000E+02  0.18301869579E+03  0.17120000000E+03 0.  0.
        998    1    1    2    0    0  0.23811262143E+01 -0.11780883157E+02  0.11927727024E+04  0.11928751731E+04  0.10000000000E+02 0. -1.
</event>
<event>
 5    1  0.9130022E-009  0.3792768E+03  0.7957747E-01  0.3454313E+00
         13   -1    0    0    0    0  0.00000000000E+00  0.00000000000E+00  0.14999999963E+04  0.15000000000E+04  0.10566000000E+00 0. -1.
        994   -1    0    0    0    0 -0.00000000000E+00 -0.00000000000E+00  0.11368683772E-12  0.17120000000E+03  0.17120000000E+03 0.  0.
         13    1    1    2    0    0 -0.47745337286E+01 -0.14810987812E+02  0.25348972843E+02  0.29744631794E+02  0.10566000000E+00 0. -1.
        994    1    1    2    0    0 -0.66309184384E+01  0.92908783875E+01  0.49353566394E+01  0.17165106247E+03  0.17120000000E+03 0.  0.
        998    1    1    2    0    0  0.11405452167E+02  0.55201094247E+01  0.14697156668E+04  0.14698043057E+04  0.10000000000E+02 0. -1.
</event>
<event>
 5    1  0.9130022E-009  0.3814230E+03  0.7957747E-01  0.3444986E+00
         13   -1    0    0    0    0  0.00000000000E+00  0.00000000000E+00  0.14999999963E+04  0.15000000000E+04  0.10566000000E+00 0.  1.
        994   -1    0    0    0    0 -0.00000000000E+00 -0.00000000000E+00  0.11368683772E-12  0.17120000000E+03  0.17120000000E+03 0.  0.
         13    1    1    2    0    0  0.27367863020E+02 -0.28087181166E+02  0.19187762988E+03  0.19584413620E+03  0.10566000000E+00 0.  1.
        994    1    1    2    0    0 -0.30861927564E+02  0.29725022375E+02  0.95497360605E+01  0.17673899679E+03  0.17120000000E+03 0.  0.
        998    1    1    2    0    0  0.34940645440E+01 -0.16378412091E+01  0.12985726303E+04  0.12986168670E+04  0.10000000000E+02 0.  1.
</event>
<event>
 5    1  0.9130022E-009  0.3826768E+03  0.7957747E-01  0.3439585E+00
         13   -1    0    0    0    0  0.00000000000E+00  0.00000000000E+00  0.14999999963E+04  0.15000000000E+04  0.10566000000E+00 0. -1.
        994   -1    0    0    0    0 -0.00000000000E+00 -0.00000000000E+00  0.11368683772E-12  0.17120000000E+03  0.17120000000E+03 0.  0.
         13    1    1    2    0    0  0.98540157232E+00 -0.22531647837E+02  0.86782705906E+02  0.89665463691E+02  0.10566000000E+00 0. -1.
        994    1    1    2    0    0  0.79255890028E+01  0.21703083389E+02  0.45588927951E+01  0.17281221685E+03  0.17120000000E+03 0.  0.
        998    1    1    2    0    0 -0.89109905751E+01  0.82856444729E+00  0.14086583976E+04  0.14087223195E+04  0.10000000000E+02 0. -1.
</event>
<event>
 5    1  0.9130022E-009  0.3799636E+03  0.7957747E-01  0.3451317E+00
         13   -1    0    0    0    0  0.00000000000E+00  0.00000000000E+00  0.14999999963E+04  0.15000000000E+04  0.10566000000E+00 0.  1.
        994   -1    0    0    0    0 -0.00000000000E+00 -0.00000000000E+00  0.11368683772E-12  0.17120000000E+03  0.17120000000E+03 0.  0.
         13    1    1    2    0    0 -0.11087572930E+02 -0.37626028865E+01  0.14501087698E+02  0.18638244617E+02  0.10566000000E+00 0.  1.
        994    1    1    2    0    0  0.14773689734E+02  0.16902845841E+01  0.48911321665E+01  0.17191417087E+03  0.17120000000E+03 0.  0.
        998    1    1    2    0    0 -0.36861168049E+01  0.20723183025E+01  0.14806077764E+04  0.14806475845E+04  0.10000000000E+02 0.  1.
</event>
<event>
 5    1  0.9130022E-009  0.3823803E+03  0.7957747E-01  0.3440859E+00
         13   -1    0    0    0    0  0.00000000000E+00  0.00000000000E+00  0.14999999963E+04  0.15000000000E+04  0.10566000000E+00 0. -1.
        994   -1    0    0    0    0 -0.00000000000E+00 -0.00000000000E+00  0.11368683772E-12  0.17120000000E+03  0.17120000000E+03 0.  0.
         13    1    1    2    0    0  0.53505039389E+02 -0.28219031372E+02  0.88120294918E+02  0.10688451952E+03  0.10566000000E+00 0. -1.
        994    1    1    2    0    0 -0.10029747405E+03 -0.35151055085E+02  0.60201006110E+02  0.21030639817E+03  0.17120000000E+03 0.  0.
        998    1    1    2    0    0  0.46792434659E+02  0.63370086457E+02  0.13516786953E+04  0.13540090823E+04  0.10000000000E+02 0. -1.
</event>
<event>
 5    1  0.9130022E-009  0.3799513E+03  0.7957747E-01  0.3451371E+00
         13   -1    0    0    0    0  0.00000000000E+00  0.00000000000E+00  0.14999999963E+04  0.15000000000E+04  0.10566000000E+00 0. -1.
        994   -1    0    0    0    0 -0.00000000000E+00 -0.00000000000E+00  0.11368683772E-12  0.17120000000E+03  0.17120000000E+03 0.  0.
         13    1    1    2    0    0  0.48419330562E+00  0.24860028030E+02  0.74533572870E+02  0.78571751194E+02  0.10566000000E+00 0. -1.
        994    1    1    2    0    0  0.91270895673E+01 -0.10780932469E+02  0.48251510354E+01  0.17184951077E+03  0.17120000000E+03 0.  0.
        998    1    1    2    0    0 -0.96112828729E+01 -0.14079095561E+02  0.14206412724E+04  0.14207787380E+04  0.10000000000E+02 0. -1.
</event>
<event>
 5    1  0.9130022E-009  0.3781404E+03  0.7957747E-01  0.3459296E+00
         13   -1    0    0    0    0  0.00000000000E+00  0.00000000000E+00  0.14999999963E+04  0.15000000000E+04  0.10566000000E+00 0.  1.
        994   -1    0    0    0    0 -0.00000000000E+00 -0.00000000000E+00  0.11368683772E-12  0.17120000000E+03  0.17120000000E+03 0.  0.
         13    1    1    2    0    0 -0.11559967793E+01  0.47338568875E+02  0.27639416571E+03  0.28042115190E+03  0.10566000000E+00 0.  1.
        994    1    1    2    0    0 -0.20834606375E+02 -0.96552221919E+00  0.65394121733E+01  0.17258973599E+03  0.17120000000E+03 0.  0.
        998    1    1    2    0    0  0.21990603154E+02 -0.46373046656E+02  0.12170664184E+04  0.12181891121E+04  0.10000000000E+02 0.  1.
</event>
<event>
 5    1  0.9130022E-009  0.3793380E+03  0.7957747E-01  0.3454046E+00
         13   -1    0    0    0    0  0.00000000000E+00  0.00000000000E+00  0.14999999963E+04  0.15000000000E+04  0.10566000000E+00 0.  1.
        994   -1    0    0    0    0 -0.00000000000E+00 -0.00000000000E+00  0.11368683772E-12  0.17120000000E+03  0.17120000000E+03 0.  0.
         13    1    1    2    0    0  0.32651019758E+02  0.65556952057E+01  0.11877802485E+03  0.12335840702E+03  0.10566000000E+00 0.  1.
        994    1    1    2    0    0 -0.24117788993E+02 -0.10882668800E+02  0.68167444702E+01  0.17336668720E+03  0.17120000000E+03 0.  0.
        998    1    1    2    0    0 -0.85332307652E+01  0.43269735945E+01  0.13744052270E+04  0.13744749058E+04  0.10000000000E+02 0.  1.
</event>
<event>
 5    1  0.9130022E-009  0.3715490E+03  0.7957747E-01  0.3488802E+00
         13   -1    0    0    0    0  0.00000000000E+00  0.00000000000E+00  0.14999999963E+04  0.15000000000E+04  0.10566000000E+00 0.  1.
        994   -1    0    0    0    0 -0.00000000000E+00 -0.00000000000E+00  0.11368683772E-12  0.17120000000E+03  0.17120000000E+03 0.  0.
         13    1    1    2    0    0  0.70773094910E+02  0.48902689225E+01  0.21727778491E+03  0.22856594819E+03  0.10566000000E+00 0.  1.
        994    1    1    2    0    0 -0.43203577271E+02  0.64731566923E+02  0.33366143431E+02  0.19099597999E+03  0.17120000000E+03 0.  0.
        998    1    1    2    0    0 -0.27569517638E+02 -0.69621835845E+02  0.12493560679E+04  0.12516380718E+04  0.10000000000E+02 0.  1.
</event>
<event>
 5    1  0.9130022E-009  0.3764667E+03  0.7957747E-01  0.3466689E+00
         13   -1    0    0    0    0  0.00000000000E+00  0.00000000000E+00  0.14999999963E+04  0.15000000000E+04  0.10566000000E+00 0. -1.
        994   -1    0    0    0    0 -0.00000000000E+00 -0.00000000000E+00  0.11368683772E-12  0.17120000000E+03  0.17120000000E+03 0.  0.
         13    1    1    2    0    0  0.13414786306E+02 -0.15416063301E+02  0.34833365637E+02  0.40385467993E+02  0.10566000000E+00 0. -1.
        994    1    1    2    0    0 -0.32808033882E+01 -0.11940337886E+02  0.64463024296E+01  0.17176824548E+03  0.17120000000E+03 0.  0.
        998    1    1    2    0    0 -0.10133982918E+02  0.27356401187E+02  0.14587203282E+04  0.14590462865E+04  0.10000000000E+02 0. -1.
</event>
<event>
 5    1  0.9130022E-009  0.3836327E+03  0.7957747E-01  0.3435492E+00
         13   -1    0    0    0    0  0.00000000000E+00  0.00000000000E+00  0.14999999963E+04  0.15000000000E+04  0.10566000000E+00 0. -1.
        994   -1    0    0    0    0 -0.00000000000E+00 -0.00000000000E+00  0.11368683772E-12  0.17120000000E+03  0.17120000000E+03 0.  0.
         13    1    1    2    0    0  0.10490216658E+02 -0.18255362220E+02  0.94433731520E+02  0.96752486832E+02  0.10566000000E+00 0. -1.
        994    1    1    2    0    0 -0.61977012300E+01  0.13454644168E+02  0.30356869649E+01  0.17186650152E+03  0.17120000000E+03 0.  0.
        998    1    1    2    0    0 -0.42925154280E+01  0.48007180522E+01  0.14025305778E+04  0.14025810116E+04  0.10000000000E+02 0. -1.
</event>
<event>
 5    1  0.9130022E-009  0.3850132E+03  0.7957747E-01  0.3429616E+00
         13   -1    0    0    0    0  0.00000000000E+00  0.00000000000E+00  0.14999999963E+04  0.15000000000E+04  0.10566000000E+00 0. -1.
        994   -1    0    0    0    0 -0.00000000000E+00 -0.00000000000E+00  0.11368683772E-12  0.17120000000E+03  0.17120000000E+03 0.  0.
         13    1    1    2    0    0 -0.40414681292E+01  0.25078851346E+02  0.14751608618E+03  0.14968730439E+03  0.10566000000E+00 0. -1.
        994    1    1    2    0    0  0.31114441499E+02 -0.44939574716E+02  0.11511040203E+02  0.18008225313E+03  0.17120000000E+03 0.  0.
        998    1    1    2    0    0 -0.27072973370E+02  0.19860723370E+02  0.13409728699E+04  0.13414304425E+04  0.10000000000E+02 0. -1.
</event>
<event>
 5    1  0.9130022E-009  0.3787582E+03  0.7957747E-01  0.3456584E+00
         13   -1    0    0    0    0  0.00000000000E+00  0.00000000000E+00  0.14999999963E+04  0.15000000000E+04  0.10566000000E+00 0.  1.
        994   -1    0    0    0    0 -0.00000000000E+00 -0.00000000000E+00  0.11368683772E-12  0.17120000000E+03  0.17120000000E+03 0.  0.
         13    1    1    2    0    0 -0.39890282250E+02  0.30228721666E+02  0.23289319675E+03  0.23821054236E+03  0.10566000000E+00 0.  1.
        994    1    1    2    0    0  0.29603059456E+02 -0.34382537731E+02  0.11702341448E+02  0.17749615440E+03  0.17120000000E+03 0.  0.
        998    1    1    2    0    0  0.10287222794E+02  0.41538160657E+01  0.12554044581E+04  0.12554933032E+04  0.10000000000E+02 0.  1.
</event>
<event>
 5    1  0.9130022E-009  0.3809609E+03  0.7957747E-01  0.3446985E+00
         13   -1    0    0    0    0  0.00000000000E+00  0.00000000000E+00  0.14999999963E+04  0.15000000000E+04  0.10566000000E+00 0. -1.
        994   -1    0    0    0    0 -0.00000000000E+00 -0.00000000000E+00  0.11368683772E-12  0.17120000000E+03  0.17120000000E+03 0.  0.
         13    1    1    2    0    0  0.34974932169E+02 -0.19279361334E+02  0.20448771554E+03  0.20835108981E+03  0.10566000000E+00 0. -1.
        994    1    1    2    0    0 -0.33174091366E+02  0.41376278589E+01  0.73821714070E+01  0.17458973841E+03  0.17120000000E+03 0.  0.
        998    1    1    2    0    0 -0.18008408029E+01  0.15141733475E+02  0.12881301093E+04  0.12882591718E+04  0.10000000000E+02 0. -1.
</event>
<event>
 5    1  0.1153215E-008  0.3861356E+03  0.7957747E-01  0.3424870E+00
         13   -1    0    0    0    0  0.00000000000E+00  0.00000000000E+00  0.14999999963E+04  0.15000000000E+04  0.10566000000E+00 0.  1.
        994   -1    0    0    0    0 -0.00000000000E+00 -0.00000000000E+00  0.11368683772E-12  0.17120000000E+03  0.17120000000E+03 0.  0.
         13    1    1    2    0    0 -0.10491477042E+02  0.26349022452E+01  0.52609074732E+02  0.53709772934E+02  0.10566000000E+00 0.  1.
        994    1    1    2    0    0  0.14592439097E+02 -0.44594152931E+01  0.18306360172E+01  0.17188838498E+03  0.17120000000E+03 0.  0.
        998    1    1    2    0    0 -0.41009620547E+01  0.18245130479E+01  0.14455602855E+04  0.14456018421E+04  0.10000000000E+02 0.  1.
</event>
<event>
 5    1  0.9130022E-009  0.3731605E+03  0.7957747E-01  0.3481491E+00
         13   -1    0    0    0    0  0.00000000000E+00  0.00000000000E+00  0.14999999963E+04  0.15000000000E+04  0.10566000000E+00 0.  1.
        994   -1    0    0    0    0 -0.00000000000E+00 -0.00000000000E+00  0.11368683772E-12  0.17120000000E+03  0.17120000000E+03 0.  0.
         13    1    1    2    0    0  0.92987403915E+02 -0.26291605800E+02  0.46259933304E+03  0.47258444739E+03  0.10566000000E+00 0.  1.
        994    1    1    2    0    0 -0.93067901660E+02 -0.63636756366E+01  0.38003391496E+02  0.19863491247E+03  0.17120000000E+03 0.  0.
        998    1    1    2    0    0  0.80497744517E-01  0.32655281437E+02  0.99939727174E+03  0.99998064014E+03  0.10000000000E+02 0. -1.
</event>
<event>
 5    1  0.9130022E-009  0.3857934E+03  0.7957747E-01  0.3426314E+00
         13   -1    0    0    0    0  0.00000000000E+00  0.00000000000E+00  0.14999999963E+04  0.15000000000E+04  0.10566000000E+00 0.  1.
        994   -1    0    0    0    0 -0.00000000000E+00 -0.00000000000E+00  0.11368683772E-12  0.17120000000E+03  0.17120000000E+03 0.  0.
         13    1    1    2    0    0  0.10872915498E+02 -0.82397968949E+00  0.48316582184E+02  0.49531833319E+02  0.10566000000E+00 0.  1.
        994    1    1    2    0    0 -0.78508335507E+01  0.19623145128E+00  0.14390786565E+01  0.17138607015E+03  0.17120000000E+03 0.  0.
        998    1    1    2    0    0 -0.30220819468E+01  0.62774823821E+00  0.14502443354E+04  0.14502820965E+04  0.10000000000E+02 0.  1.
</event>
<event>
 5    1  0.9130022E-009  0.3752967E+03  0.7957747E-01  0.3471897E+00
         13   -1    0    0    0    0  0.00000000000E+00  0.00000000000E+00  0.14999999963E+04  0.15000000000E+04  0.10566000000E+00 0. -1.
        994   -1    0    0    0    0 -0.00000000000E+00 -0.00000000000E+00  0.11368683772E-12  0.17120000000E+03  0.17120000000E+03 0.  0.
         13    1    1    2    0    0 -0.46519179290E+02  0.97973493307E+01  0.23013730659E+03  0.23499619815E+03  0.10566000000E+00 0. -1.
        994    1    1    2    0    0 -0.14948398505E+02  0.59661673347E+01  0.74065888796E+01  0.17211434376E+03  0.17120000000E+03 0.  0.
        998    1    1    2    0    0  0.61467577795E+02 -0.15763516665E+02  0.12624561008E+04  0.12640894581E+04  0.10000000000E+02 0. -1.
</event>
<event>
 5    1  0.9130022E-009  0.3824118E+03  0.7957747E-01  0.3440724E+00
         13   -1    0    0    0    0  0.00000000000E+00  0.00000000000E+00  0.14999999963E+04  0.15000000000E+04  0.10566000000E+00 0. -1.
        994   -1    0    0    0    0 -0.00000000000E+00 -0.00000000000E+00  0.11368683772E-12  0.17120000000E+03  0.17120000000E+03 0.  0.
         13    1    1    2    0    0 -0.13333356130E+02  0.79773383416E+01  0.41677944111E+02  0.44480091075E+02  0.10566000000E+00 0. -1.
        994    1    1    2    0    0 -0.34569574714E+01 -0.10195932145E+02  0.33050875596E+01  0.17157001833E+03  0.17120000000E+03 0.  0.
        998    1    1    2    0    0  0.16790313602E+02  0.22185938038E+01  0.14550169646E+04  0.14551498906E+04  0.10000000000E+02 0. -1.
</event>
<event>
 5    1  0.9130022E-009  0.3784943E+03  0.7957747E-01  0.3457741E+00
         13   -1    0    0    0    0  0.00000000000E+00  0.00000000000E+00  0.14999999963E+04  0.15000000000E+04  0.10566000000E+00 0.  1.
        994   -1    0    0    0    0 -0.00000000000E+00 -0.00000000000E+00  0.11368683772E-12  0.17120000000E+03  0.17120000000E+03 0.  0.
         13    1    1    2    0    0  0.13557141754E+02  0.40547388643E+02  0.21317280228E+03  0.21741789626E+03  0.10566000000E+00 0.  1.
        994    1    1    2    0    0 -0.68159212087E+01 -0.32358532679E+01  0.50864063223E+01  0.17144164913E+03  0.17120000000E+03 0.  0.
        998    1    1    2    0    0 -0.67412205455E+01 -0.37311535375E+02  0.12817407877E+04  0.12823404546E+04  0.10000000000E+02 0.  1.
</event>
<event>
 5    1  0.9130022E-009  0.3821859E+03  0.7957747E-01  0.3441696E+00
         13   -1    0    0    0    0  0.00000000000E+00  0.00000000000E+00  0.14999999963E+04  0.15000000000E+04  0.10566000000E+00 0. -1.
        994   -1    0    0    0    0 -0.00000000000E+00 -0.00000000000E+00  0.11368683772E-12  0.17120000000E+03  0.17120000000E+03 0.  0.
         13    1    1    2    0    0 -0.15120726506E+02 -0.30658674741E+02  0.18434866918E+03  0.18749142300E+03  0.10566000000E+00 0. -1.
        994    1    1    2    0    0  0.29179077600E+02  0.13935914282E+02  0.65119275873E+01  0.17434871229E+03  0.17120000000E+03 0.  0.
        998    1    1    2    0    0 -0.14058351094E+02  0.16722760459E+02  0.13091393995E+04  0.13093598647E+04  0.10000000000E+02 0. -1.
</event>
<event>
 5    1  0.9130022E-009  0.3811220E+03  0.7957747E-01  0.3446287E+00
         13   -1    0    0    0    0  0.00000000000E+00  0.00000000000E+00  0.14999999963E+04  0.15000000000E+04  0.10566000000E+00 0. -1.
        994   -1    0    0    0    0 -0.00000000000E+00 -0.00000000000E+00  0.11368683772E-12  0.17120000000E+03  0.17120000000E+03 0.  0.
         13    1    1    2    0    0 -0.17058896476E+02 -0.35608790197E+02  0.18871361395E+03  0.19279997703E+03  0.10566000000E+00 0. -1.
        994    1    1    2    0    0  0.15165672140E+02  0.39008994179E+02  0.94240731341E+01  0.17649349108E+03  0.17120000000E+03 0.  0.
        998    1    1    2    0    0  0.18932243357E+01 -0.34002039817E+01  0.13018623092E+04  0.13019065319E+04  0.10000000000E+02 0. -1.
</event>
<event>
 5    1  0.9130022E-009  0.3819506E+03  0.7957747E-01  0.3442709E+00
         13   -1    0    0    0    0  0.00000000000E+00  0.00000000000E+00  0.14999999963E+04  0.15000000000E+04  0.10566000000E+00 0.  1.
        994   -1    0    0    0    0 -0.00000000000E+00 -0.00000000000E+00  0.11368683772E-12  0.17120000000E+03  0.17120000000E+03 0.  0.
         13    1    1    2    0    0 -0.32002609512E+01 -0.16931802588E+02  0.69689390894E+02  0.71788230068E+02  0.10566000000E+00 0.  1.
        994    1    1    2    0    0  0.37083700483E+02 -0.74390755453E+02  0.26450803614E+02  0.19214127706E+03  0.17120000000E+03 0.  0.
        998    1    1    2    0    0 -0.33883439532E+02  0.91322558042E+02  0.14038598018E+04  0.14072704929E+04  0.10000000000E+02 0.  1.
</event>
<event>
 5    1  0.9130022E-009  0.3846742E+03  0.7957747E-01  0.3431055E+00
         13   -1    0    0    0    0  0.00000000000E+00  0.00000000000E+00  0.14999999963E+04  0.15000000000E+04  0.10566000000E+00 0.  1.
        994   -1    0    0    0    0 -0.00000000000E+00 -0.00000000000E+00  0.11368683772E-12  0.17120000000E+03  0.17120000000E+03 0.  0.
         13    1    1    2    0    0 -0.10473239201E+02 -0.25081445239E+01  0.31440918311E+02  0.33234350251E+02  0.10566000000E+00 0.  1.
        994    1    1    2    0    0  0.11115714022E+02  0.32510211792E+01  0.22336758415E+01  0.17160582025E+03  0.17120000000E+03 0.  0.
        998    1    1    2    0    0 -0.64247482058E+00 -0.74287665533E+00  0.14663254021E+04  0.14663598295E+04  0.10000000000E+02 0.  1.
</event>
<event>
 5    1  0.9130022E-009  0.3795250E+03  0.7957747E-01  0.3453230E+00
         13   -1    0    0    0    0  0.00000000000E+00  0.00000000000E+00  0.14999999963E+04  0.15000000000E+04  0.10566000000E+00 0.  1.
        994   -1    0    0    0    0 -0.00000000000E+00 -0.00000000000E+00  0.11368683772E-12  0.17120000000E+03  0.17120000000E+03 0.  0.
         13    1    1    2    0    0 -0.37771863357E+02 -0.14918385718E+01  0.17625303659E+03  0.18026115310E+03  0.10566000000E+00 0.  1.
        994    1    1    2    0    0  0.98299566788E+01 -0.57240690481E+01  0.48064839293E+01  0.17164479399E+03  0.17120000000E+03 0.  0.
        998    1    1    2    0    0  0.27941906679E+02  0.72159076199E+01  0.13189404758E+04  0.13192940529E+04  0.10000000000E+02 0.  1.
</event>
<event>
 5    1  0.9130022E-009  0.3831202E+03  0.7957747E-01  0.3437684E+00
         13   -1    0    0    0    0  0.00000000000E+00  0.00000000000E+00  0.14999999963E+04  0.15000000000E+04  0.10566000000E+00 0.  1.
        994   -1    0    0    0    0 -0.00000000000E+00 -0.00000000000E+00  0.11368683772E-12  0.17120000000E+03  0.17120000000E+03 0.  0.
         13    1    1    2    0    0 -0.12663540778E+02  0.14414070269E+02  0.75619738695E+02  0.78015938956E+02  0.10566000000E+00 0.  1.
        994    1    1    2    0    0  0.73465749346E+01  0.49982240052E+01  0.28275997639E+01  0.17145375390E+03  0.17120000000E+03 0.  0.
        998    1    1    2    0    0  0.53169658438E+01 -0.19412294274E+02  0.14215526578E+04  0.14217303071E+04  0.10000000000E+02 0.  1.
</event>
<event>
 5    1  0.9130022E-009  0.3848026E+03  0.7957747E-01  0.3430510E+00
         13   -1    0    0    0    0  0.00000000000E+00  0.00000000000E+00  0.14999999963E+04  0.15000000000E+04  0.10566000000E+00 0. -1.
        994   -1    0    0    0    0 -0.00000000000E+00 -0.00000000000E+00  0.11368683772E-12  0.17120000000E+03  0.17120000000E+03 0.  0.
         13    1    1    2    0    0 -0.11875123158E+01 -0.17193616838E+02  0.89347075727E+02  0.90994185257E+02  0.10566000000E+00 0. -1.
        994    1    1    2    0    0 -0.38163990635E+01  0.59547500856E+01  0.18928030480E+01  0.17135648997E+03  0.17120000000E+03 0.  0.
        998    1    1    2    0    0  0.50039113794E+01  0.11238866752E+02  0.14087601175E+04  0.14088493248E+04  0.10000000000E+02 0. -1.
</event>
<event>
 5    1  0.9130022E-009  0.3742139E+03  0.7957747E-01  0.3476746E+00
         13   -1    0    0    0    0  0.00000000000E+00  0.00000000000E+00  0.14999999963E+04  0.15000000000E+04  0.10566000000E+00 0.  1.
        994   -1    0    0    0    0 -0.00000000000E+00 -0.00000000000E+00  0.11368683772E-12  0.17120000000E+03  0.17120000000E+03 0.  0.
         13    1    1    2    0    0 -0.20352525035E+02  0.62428954898E+02  0.33852406609E+03  0.34483351660E+03  0.10566000000E+00 0.  1.
        994    1    1    2    0    0  0.10840855546E+02 -0.21092559867E+02  0.90021649454E+01  0.17306905906E+03  0.17120000000E+03 0.  0.
        998    1    1    2    0    0  0.95116694885E+01 -0.41336395031E+02  0.11524737652E+04  0.11532974243E+04  0.10000000000E+02 0.  1.
</event>
<event>
 5    1  0.9130022E-009  0.3697302E+03  0.7957747E-01  0.3497132E+00
         13   -1    0    0    0    0  0.00000000000E+00  0.00000000000E+00  0.14999999963E+04  0.15000000000E+04  0.10566000000E+00 0. -1.
        994   -1    0    0    0    0 -0.00000000000E+00 -0.00000000000E+00  0.11368683772E-12  0.17120000000E+03  0.17120000000E+03 0.  0.
         13    1    1    2    0    0  0.61219389929E+02 -0.25110221321E+01  0.18232946301E+03  0.19234906598E+03  0.10566000000E+00 0. -1.
        994    1    1    2    0    0 -0.51547763197E+02 -0.15856510879E+01  0.18671989004E+02  0.17977143642E+03  0.17120000000E+03 0.  0.
        998    1    1    2    0    0 -0.96716267324E+01  0.40966732200E+01  0.12989985443E+04  0.12990794976E+04  0.10000000000E+02 0. -1.
</event>
<event>
 5    1  0.9130022E-009  0.3700756E+03  0.7957747E-01  0.3495544E+00
         13   -1    0    0    0    0  0.00000000000E+00  0.00000000000E+00  0.14999999963E+04  0.15000000000E+04  0.10566000000E+00 0.  1.
        994   -1    0    0    0    0 -0.00000000000E+00 -0.00000000000E+00  0.11368683772E-12  0.17120000000E+03  0.17120000000E+03 0.  0.
         13    1    1    2    0    0 -0.10992197502E+02  0.10730491835E+02  0.86123364070E+01  0.17611228332E+02  0.10566000000E+00 0.  1.
        994    1    1    2    0    0  0.25898113854E+01 -0.14943287995E+02  0.10025028325E+02  0.17216256902E+03  0.17120000000E+03 0.  0.
        998    1    1    2    0    0  0.84023861163E+01  0.42127961593E+01  0.14813626315E+04  0.14814262026E+04  0.10000000000E+02 0.  1.
</event>
<event>
 5    1  0.9130022E-009  0.3793414E+03  0.7957747E-01  0.3454031E+00
         13   -1    0    0    0    0  0.00000000000E+00  0.00000000000E+00  0.14999999963E+04  0.15000000000E+04  0.10566000000E+00 0.  1.
        994   -1    0    0    0    0 -0.00000000000E+00 -0.00000000000E+00  0.11368683772E-12  0.17120000000E+03  0.17120000000E+03 0.  0.
         13    1    1    2    0    0  0.41523837362E+02  0.32607819856E+01  0.24377112853E+03  0.24730393453E+03  0.10566000000E+00 0.  1.
        994    1    1    2    0    0  0.47759067976E+01 -0.81879866984E+01  0.47670661177E+01  0.17152847382E+03  0.17120000000E+03 0.  0.
        998    1    1    2    0    0 -0.46299744160E+02  0.49272047128E+01  0.12514618016E+04  0.12523675916E+04  0.10000000000E+02 0.  1.
</event>
<event>
 5    1  0.9130022E-009  0.3836546E+03  0.7957747E-01  0.3435399E+00
         13   -1    0    0    0    0  0.00000000000E+00  0.00000000000E+00  0.14999999963E+04  0.15000000000E+04  0.10566000000E+00 0.  1.
        994   -1    0    0    0    0 -0.00000000000E+00 -0.00000000000E+00  0.11368683772E-12  0.17120000000E+03  0.17120000000E+03 0.  0.
         13    1    1    2    0    0 -0.21215371534E+02 -0.18286149969E+02  0.16638924813E+03  0.16873016424E+03  0.10566000000E+00 0.  1.
        994    1    1    2    0    0  0.20910690796E+02  0.53133985163E+01  0.38386487274E+01  0.17259682621E+03  0.17120000000E+03 0.  0.
        998    1    1    2    0    0  0.30468073805E+00  0.12972751453E+02  0.13297720994E+04  0.13298730095E+04  0.10000000000E+02 0.  1.
</event>
<event>
 5    1  0.9130022E-009  0.3847336E+03  0.7957747E-01  0.3430803E+00
         13   -1    0    0    0    0  0.00000000000E+00  0.00000000000E+00  0.14999999963E+04  0.15000000000E+04  0.10566000000E+00 0. -1.
        994   -1    0    0    0    0 -0.00000000000E+00 -0.00000000000E+00  0.11368683772E-12  0.17120000000E+03  0.17120000000E+03 0.  0.
         13    1    1    2    0    0  0.18773878811E+03 -0.11051108004E+03  0.10839131332E+04  0.11055886409E+04  0.10566000000E+00 0. -1.
        994    1    1    2    0    0 -0.19884008121E+03  0.11628297012E+03  0.20207902542E+03  0.35100495659E+03  0.17120000000E+03 0.  0.
        998    1    1    2    0    0  0.11101293104E+02 -0.57718900829E+01  0.21400783764E+03  0.21460640250E+03  0.10000000000E+02 0. -1.
</event>
<event>
 5    1  0.9130022E-009  0.3724474E+03  0.7957747E-01  0.3484718E+00
         13   -1    0    0    0    0  0.00000000000E+00  0.00000000000E+00  0.14999999963E+04  0.15000000000E+04  0.10566000000E+00 0.  1.
        994   -1    0    0    0    0 -0.00000000000E+00 -0.00000000000E+00  0.11368683772E-12  0.17120000000E+03  0.17120000000E+03 0.  0.
         13    1    1    2    0    0 -0.61676257450E+02  0.60231384810E+02  0.43835783827E+03  0.44675427920E+03  0.10566000000E+00 0.  1.
        994    1    1    2    0    0  0.67721728094E+02 -0.13723799624E+02  0.24547901509E+02  0.18624342834E+03  0.17120000000E+03 0.  0.
        998    1    1    2    0    0 -0.60454706442E+01 -0.46507585185E+02  0.10370942565E+04  0.10382022925E+04  0.10000000000E+02 0.  1.
</event>
<event>
 5    1  0.9130022E-009  0.3830314E+03  0.7957747E-01  0.3438064E+00
         13   -1    0    0    0    0  0.00000000000E+00  0.00000000000E+00  0.14999999963E+04  0.15000000000E+04  0.10566000000E+00 0.  1.
        994   -1    0    0    0    0 -0.00000000000E+00 -0.00000000000E+00  0.11368683772E-12  0.17120000000E+03  0.17120000000E+03 0.  0.
         13    1    1    2    0    0 -0.61072380296E+01  0.22698243959E+02  0.10244288791E+03  0.10510501930E+03  0.10566000000E+00 0.  1.
        994    1    1    2    0    0  0.20857067445E+02 -0.13889948066E+02  0.46918078229E+01  0.17308784180E+03  0.17120000000E+03 0.  0.
        998    1    1    2    0    0 -0.14749829416E+02 -0.88082958930E+01  0.13928653005E+04  0.13930071389E+04  0.10000000000E+02 0.  1.
</event>
<event>
 5    1  0.9130022E-009  0.3847095E+03  0.7957747E-01  0.3430905E+00
         13   -1    0    0    0    0  0.00000000000E+00  0.00000000000E+00  0.14999999963E+04  0.15000000000E+04  0.10566000000E+00 0.  1.
        994   -1    0    0    0    0 -0.00000000000E+00 -0.00000000000E+00  0.11368683772E-12  0.17120000000E+03  0.17120000000E+03 0.  0.
         13    1    1    2    0    0  0.90652350947E+01  0.60127397395E+01  0.33056868340E+02  0.34800851067E+02  0.10566000000E+00 0.  1.
        994    1    1    2    0    0 -0.64806849074E+01 -0.32549239937E+01  0.19475861109E+01  0.17136460223E+03  0.17120000000E+03 0.  0.
        998    1    1    2    0    0 -0.25845501872E+01 -0.27578157458E+01  0.14649955418E+04  0.14650345467E+04  0.10000000000E+02 0.  1.
</event>
<event>
 5    1  0.9130022E-009  0.3753012E+03  0.7957747E-01  0.3471877E+00
         13   -1    0    0    0    0  0.00000000000E+00  0.00000000000E+00  0.14999999963E+04  0.15000000000E+04  0.10566000000E+00 0. -1.
        994   -1    0    0    0    0 -0.00000000000E+00 -0.00000000000E+00  0.11368683772E-12  0.17120000000E+03  0.17120000000E+03 0.  0.
         13    1    1    2    0    0  0.45565332275E+01 -0.10580394226E+02  0.71557854157E+01  0.13561827531E+02  0.10566000000E+00 0. -1.
        994    1    1    2    0    0 -0.33139180075E+01  0.10249958212E+02  0.69182740261E+01  0.17167803066E+03  0.17120000000E+03 0.  0.
        998    1    1    2    0    0 -0.12426152200E+01  0.33043601386E+00  0.14859259368E+04  0.14859601418E+04  0.10000000000E+02 0. -1.
</event>
<event>
 5    1  0.9130022E-009  0.3780642E+03  0.7957747E-01  0.3459631E+00
         13   -1    0    0    0    0  0.00000000000E+00  0.00000000000E+00  0.14999999963E+04  0.15000000000E+04  0.10566000000E+00 0.  1.
        994   -1    0    0    0    0 -0.00000000000E+00 -0.00000000000E+00  0.11368683772E-12  0.17120000000E+03  0.17120000000E+03 0.  0.
         13    1    1    2    0    0 -0.77663318094E+01 -0.21111759834E+02  0.46873547571E+02  0.51991950714E+02  0.10566000000E+00 0.  1.
        994    1    1    2    0    0  0.18567009099E+01  0.19252267161E+02  0.63731676176E+01  0.17240694416E+03  0.17120000000E+03 0.  0.
        998    1    1    2    0    0  0.59096308995E+01  0.18594926738E+01  0.14467532811E+04  0.14468011051E+04  0.10000000000E+02 0.  1.
</event>
<event>
 5    1  0.9130022E-009  0.3815460E+03  0.7957747E-01  0.3444454E+00
         13   -1    0    0    0    0  0.00000000000E+00  0.00000000000E+00  0.14999999963E+04  0.15000000000E+04  0.10566000000E+00 0. -1.
        994   -1    0    0    0    0 -0.00000000000E+00 -0.00000000000E+00  0.11368683772E-12  0.17120000000E+03  0.17120000000E+03 0.  0.
         13    1    1    2    0    0 -0.22600517052E+02 -0.23037480440E+00  0.80711931205E+02  0.83816844646E+02  0.10566000000E+00 0. -1.
        994    1    1    2    0    0  0.91784462226E-02 -0.60438500884E+01  0.34762649486E+01  0.17134191731E+03  0.17120000000E+03 0.  0.
        998    1    1    2    0    0  0.22591338606E+02  0.62742248928E+01  0.14158118001E+04  0.14160412380E+04  0.10000000000E+02 0. -1.
</event>
<event>
 5    1  0.9130022E-009  0.3800462E+03  0.7957747E-01  0.3450957E+00
         13   -1    0    0    0    0  0.00000000000E+00  0.00000000000E+00  0.14999999963E+04  0.15000000000E+04  0.10566000000E+00 0.  1.
        994   -1    0    0    0    0 -0.00000000000E+00 -0.00000000000E+00  0.11368683772E-12  0.17120000000E+03  0.17120000000E+03 0.  0.
         13    1    1    2    0    0 -0.14951353926E+02  0.22193647139E+02  0.96719945225E+02  0.10035367420E+03  0.10566000000E+00 0.  1.
        994    1    1    2    0    0 -0.11518543991E+02  0.63187897544E+00  0.45547555215E+01  0.17164865838E+03  0.17120000000E+03 0.  0.
        998    1    1    2    0    0  0.26469897917E+02 -0.22825526114E+02  0.13987252955E+04  0.13991976674E+04  0.10000000000E+02 0.  1.
</event>
<event>
 5    1  0.9130022E-009  0.3826504E+03  0.7957747E-01  0.3439699E+00
         13   -1    0    0    0    0  0.00000000000E+00  0.00000000000E+00  0.14999999963E+04  0.15000000000E+04  0.10566000000E+00 0. -1.
        994   -1    0    0    0    0 -0.00000000000E+00 -0.00000000000E+00  0.11368683772E-12  0.17120000000E+03  0.17120000000E+03 0.  0.
         13    1    1    2    0    0  0.17469640272E+02 -0.13124951784E+02  0.83944407178E+02  0.86741727853E+02  0.10566000000E+00 0. -1.
        994    1    1    2    0    0 -0.12328972653E+02  0.79686202032E+01  0.35156764233E+01  0.17186419771E+03  0.17120000000E+03 0.  0.
        998    1    1    2    0    0 -0.51406676195E+01  0.51563315807E+01  0.14125399127E+04  0.14125940744E+04  0.10000000000E+02 0. -1.
</event>
<event>
 5    1  0.9130022E-009  0.3718127E+03  0.7957747E-01  0.3487602E+00
         13   -1    0    0    0    0  0.00000000000E+00  0.00000000000E+00  0.14999999963E+04  0.15000000000E+04  0.10566000000E+00 0.  1.
        994   -1    0    0    0    0 -0.00000000000E+00 -0.00000000000E+00  0.11368683772E-12  0.17120000000E+03  0.17120000000E+03 0.  0.
         13    1    1    2    0    0  0.48476178824E+02  0.12333803209E+02  0.17324686469E+03  0.18032345910E+03  0.10566000000E+00 0.  1.
        994    1    1    2    0    0  0.67539491412E+01 -0.21855214288E+02  0.10124789449E+02  0.17301796896E+03  0.17120000000E+03 0.  0.
        998    1    1    2    0    0 -0.55230127965E+02  0.95214110790E+01  0.13166283421E+04  0.13178585719E+04  0.10000000000E+02 0.  1.
</event>
<event>
 5    1  0.9905046E-009  0.3853809E+03  0.7957747E-01  0.3428058E+00
         13   -1    0    0    0    0  0.00000000000E+00  0.00000000000E+00  0.14999999963E+04  0.15000000000E+04  0.10566000000E+00 0. -1.
        994   -1    0    0    0    0 -0.00000000000E+00 -0.00000000000E+00  0.11368683772E-12  0.17120000000E+03  0.17120000000E+03 0.  0.
         13    1    1    2    0    0 -0.10959419613E+02  0.13646133414E+02  0.10050264100E+03  0.10201528243E+03  0.10566000000E+00 0. -1.
        994    1    1    2    0    0  0.87725830088E+01 -0.16543732730E+02  0.25937373554E+01  0.17224058981E+03  0.17120000000E+03 0.  0.
        998    1    1    2    0    0  0.21868366047E+01  0.28975993155E+01  0.13969036179E+04  0.13969441278E+04  0.10000000000E+02 0. -1.
</event>
<event>
 5    1  0.9130022E-009  0.3692053E+03  0.7957747E-01  0.3499551E+00
         13   -1    0    0    0    0  0.00000000000E+00  0.00000000000E+00  0.14999999963E+04  0.15000000000E+04  0.10566000000E+00 0.  1.
        994   -1    0    0    0    0 -0.00000000000E+00 -0.00000000000E+00  0.11368683772E-12  0.17120000000E+03  0.17120000000E+03 0.  0.
         13    1    1    2    0    0  0.21342027040E+02 -0.54997135610E+02  0.16423249049E+03  0.17450641575E+03  0.10566000000E+00 0.  1.
        994    1    1    2    0    0 -0.15718772166E+02  0.48493880708E+02  0.18749897501E+02  0.17960995218E+03  0.17120000000E+03 0.  0.
        998    1    1    2    0    0 -0.56232548742E+01  0.65032549023E+01  0.13170176083E+04  0.13170836321E+04  0.10000000000E+02 0.  1.
</event>
<event>
 5    1  0.9130022E-009  0.3834535E+03  0.7957747E-01  0.3436258E+00
         13   -1    0    0    0    0  0.00000000000E+00  0.00000000000E+00  0.14999999963E+04  0.15000000000E+04  0.10566000000E+00 0.  1.
        994   -1    0    0    0    0 -0.00000000000E+00 -0.00000000000E+00  0.11368683772E-12  0.17120000000E+03  0.17120000000E+03 0.  0.
         13    1    1    2    0    0  0.88101043920E+01 -0.18173932582E+02  0.29123963492E+01  0.20405954558E+02  0.10566000000E+00 0.  1.
        994    1    1    2    0    0 -0.20000494859E+02  0.20048908989E+02  0.21185988184E+02  0.17481494399E+03  0.17120000000E+03 0.  0.
        998    1    1    2    0    0  0.11190390467E+02 -0.18749764070E+01  0.14759016117E+04  0.14759791015E+04  0.10000000000E+02 0.  1.
</event>
<event>
 5    1  0.9130022E-009  0.3733417E+03  0.7957747E-01  0.3480673E+00
         13   -1    0    0    0    0  0.00000000000E+00  0.00000000000E+00  0.14999999963E+04  0.15000000000E+04  0.10566000000E+00 0.  1.
        994   -1    0    0    0    0 -0.00000000000E+00 -0.00000000000E+00  0.11368683772E-12  0.17120000000E+03  0.17120000000E+03 0.  0.
         13    1    1    2    0    0  0.12601455922E+02 -0.18559769817E+02  0.29989197880E+02  0.37451634150E+02  0.10566000000E+00 0.  1.
        994    1    1    2    0    0 -0.13185456877E+02  0.14549704512E+02  0.88518137973E+01  0.17254954298E+03  0.17120000000E+03 0.  0.
        998    1    1    2    0    0  0.58400095543E+00  0.40100653046E+01  0.14611589846E+04  0.14611988229E+04  0.10000000000E+02 0.  1.
</event>
<event>
 5    1  0.9130022E-009  0.3808637E+03  0.7957747E-01  0.3447406E+00
         13   -1    0    0    0    0  0.00000000000E+00  0.00000000000E+00  0.14999999963E+04  0.15000000000E+04  0.10566000000E+00 0.  1.
        994   -1    0    0    0    0 -0.00000000000E+00 -0.00000000000E+00  0.11368683772E-12  0.17120000000E+03  0.17120000000E+03 0.  0.
         13    1    1    2    0    0  0.80470494452E+01 -0.60041236310E+01  0.11928596280E+02  0.15591891437E+02  0.10566000000E+00 0.  1.
        994    1    1    2    0    0 -0.77256278135E+01  0.75759865718E+01  0.40881598534E+01  0.17159030843E+03  0.17120000000E+03 0.  0.
        998    1    1    2    0    0 -0.32142163169E+00 -0.15718629408E+01  0.14839832401E+04  0.14840178001E+04  0.10000000000E+02 0.  1.
</event>
<event>
 5    1  0.9130022E-009  0.3846914E+03  0.7957747E-01  0.3430982E+00
         13   -1    0    0    0    0  0.00000000000E+00  0.00000000000E+00  0.14999999963E+04  0.15000000000E+04  0.10566000000E+00 0.  1.
        994   -1    0    0    0    0 -0.00000000000E+00 -0.00000000000E+00  0.11368683772E-12  0.17120000000E+03  0.17120000000E+03 0.  0.
         13    1    1    2    0    0  0.12882400145E+02 -0.74859842917E+01  0.60679651837E+02  0.62482217514E+02  0.10566000000E+00 0.  1.
        994    1    1    2    0    0 -0.10523977959E+02  0.92539798223E+01  0.24301839457E+01  0.17178980193E+03  0.17120000000E+03 0.  0.
        998    1    1    2    0    0 -0.23584221863E+01 -0.17679955305E+01  0.14368901605E+04  0.14369279806E+04  0.10000000000E+02 0.  1.
</event>
<event>
 5    1  0.9130022E-009  0.3776047E+03  0.7957747E-01  0.3461655E+00
         13   -1    0    0    0    0  0.00000000000E+00  0.00000000000E+00  0.14999999963E+04  0.15000000000E+04  0.10566000000E+00 0.  1.
        994   -1    0    0    0    0 -0.00000000000E+00 -0.00000000000E+00  0.11368683772E-12  0.17120000000E+03  0.17120000000E+03 0.  0.
         13    1    1    2    0    0  0.33293318758E+02  0.12099624164E+02  0.11175654681E+03  0.11723644014E+03  0.10566000000E+00 0.  1.
        994    1    1    2    0    0 -0.23967573874E+02 -0.16274259489E+02  0.81804521368E+01  0.17382651097E+03  0.17120000000E+03 0.  0.
        998    1    1    2    0    0 -0.93257448835E+01  0.41746353243E+01  0.13800629973E+04  0.13801370489E+04  0.10000000000E+02 0.  1.
</event>
<event>
 5    1  0.9130022E-009  0.3850069E+03  0.7957747E-01  0.3429643E+00
         13   -1    0    0    0    0  0.00000000000E+00  0.00000000000E+00  0.14999999963E+04  0.15000000000E+04  0.10566000000E+00 0.  1.
        994   -1    0    0    0    0 -0.00000000000E+00 -0.00000000000E+00  0.11368683772E-12  0.17120000000E+03  0.17120000000E+03 0.  0.
         13    1    1    2    0    0 -0.18305695770E+02  0.11152948171E+01  0.10523817246E+03  0.10682427854E+03  0.10566000000E+00 0.  1.
        994    1    1    2    0    0  0.93466142347E+01 -0.40112184713E+01  0.19669672490E+01  0.17151314245E+03  0.17120000000E+03 0.  0.
        998    1    1    2    0    0  0.89590815349E+01  0.28959236543E+01  0.13927948566E+04  0.13928625790E+04  0.10000000000E+02 0.  1.
</event>
<event>
 5    1  0.9130022E-009  0.3999956E+03  0.7957747E-01  0.3368461E+00
         13   -1    0    0    0    0  0.00000000000E+00  0.00000000000E+00  0.14999999963E+04  0.15000000000E+04  0.10566000000E+00 0.  1.
        994   -1    0    0    0    0 -0.00000000000E+00 -0.00000000000E+00  0.11368683772E-12  0.17120000000E+03  0.17120000000E+03 0.  0.
         13    1    1    2    0    0  0.29055296370E+02 -0.19644781771E+01  0.37393887655E+01  0.29360919843E+02  0.10566000000E+00 0.  1.
        994    1    1    2    0    0 -0.19236990090E+02  0.11603492494E+01  0.29232451926E+02  0.17474376797E+03  0.17120000000E+03 0.  0.
        998    1    1    2    0    0 -0.98183062795E+01  0.80412892773E+00  0.14670281556E+04  0.14670953122E+04  0.10000000000E+02 0.  1.
</event>
<event>
 5    1  0.9130022E-009  0.3808257E+03  0.7957747E-01  0.3447571E+00
         13   -1    0    0    0    0  0.00000000000E+00  0.00000000000E+00  0.14999999963E+04  0.15000000000E+04  0.10566000000E+00 0. -1.
        994   -1    0    0    0    0 -0.00000000000E+00 -0.00000000000E+00  0.11368683772E-12  0.17120000000E+03  0.17120000000E+03 0.  0.
         13    1    1    2    0    0  0.13195905909E+01 -0.23192688403E+02  0.65834705001E+02  0.69813047930E+02  0.10566000000E+00 0. -1.
        994    1    1    2    0    0  0.90855314690E+01  0.33464682463E+02  0.77360221830E+01  0.17484769914E+03  0.17120000000E+03 0.  0.
        998    1    1    2    0    0 -0.10405122060E+02 -0.10271994060E+02  0.14264292691E+04  0.14265392529E+04  0.10000000000E+02 0. -1.
</event>
<event>
 5    1  0.9130022E-009  0.2936119E+03  0.7957747E-01  0.3942707E+00
         13   -1    0    0    0    0  0.00000000000E+00  0.00000000000E+00  0.14999999963E+04  0.15000000000E+04  0.10566000000E+00 0.  1.
        994   -1    0    0    0    0 -0.00000000000E+00 -0.00000000000E+00  0.11368683772E-12  0.17120000000E+03  0.17120000000E+03 0.  0.
         13    1    1    2    0    0  0.16657080097E+03 -0.10428824426E+03  0.47610876224E+03  0.51507420268E+03  0.10566000000E+00 0.  1.
        994    1    1    2    0    0 -0.21922975085E+03  0.11753160667E+03  0.28515429749E+03  0.41532851528E+03  0.17120000000E+03 0.  0.
        998    1    1    2    0    0  0.52658949882E+02 -0.13243362416E+02  0.73873693655E+03  0.74079728204E+03  0.10000000000E+02 0.  1.
</event>
<event>
 5    1  0.9130022E-009  0.3742957E+03  0.7957747E-01  0.3476379E+00
         13   -1    0    0    0    0  0.00000000000E+00  0.00000000000E+00  0.14999999963E+04  0.15000000000E+04  0.10566000000E+00 0. -1.
        994   -1    0    0    0    0 -0.00000000000E+00 -0.00000000000E+00  0.11368683772E-12  0.17120000000E+03  0.17120000000E+03 0.  0.
         13    1    1    2    0    0 -0.37697934644E+02 -0.29188190127E+02  0.16831048993E+03  0.17493289258E+03  0.10566000000E+00 0. -1.
        994    1    1    2    0    0  0.32475051666E+02 -0.12127267346E+02  0.11146379123E+02  0.17502965852E+03  0.17120000000E+03 0.  0.
        998    1    1    2    0    0  0.52228829779E+01  0.41315457473E+02  0.13205431272E+04  0.13212374489E+04  0.10000000000E+02 0. -1.
</event>
<event>
 5    1  0.9130022E-009  0.3847607E+03  0.7957747E-01  0.3430688E+00
         13   -1    0    0    0    0  0.00000000000E+00  0.00000000000E+00  0.14999999963E+04  0.15000000000E+04  0.10566000000E+00 0. -1.
        994   -1    0    0    0    0 -0.00000000000E+00 -0.00000000000E+00  0.11368683772E-12  0.17120000000E+03  0.17120000000E+03 0.  0.
         13    1    1    2    0    0  0.10215018819E+02 -0.40582105899E+00  0.27961312875E+02  0.29771756447E+02  0.10566000000E+00 0. -1.
        994    1    1    2    0    0 -0.20355428477E+02 -0.13267651072E+01  0.31196957044E+01  0.17243919588E+03  0.17120000000E+03 0.  0.
        998    1    1    2    0    0  0.10140409659E+02  0.17325861662E+01  0.14689189877E+04  0.14689890477E+04  0.10000000000E+02 0. -1.
</event>
<event>
 5    1  0.9130022E-009  0.3853301E+03  0.7957747E-01  0.3428273E+00
         13   -1    0    0    0    0  0.00000000000E+00  0.00000000000E+00  0.14999999963E+04  0.15000000000E+04  0.10566000000E+00 0.  1.
        994   -1    0    0    0    0 -0.00000000000E+00 -0.00000000000E+00  0.11368683772E-12  0.17120000000E+03  0.17120000000E+03 0.  0.
         13    1    1    2    0    0  0.84093717424E+01  0.11008493200E+02  0.65637272385E+02  0.67083285145E+02  0.10566000000E+00 0.  1.
        994    1    1    2    0    0 -0.36218811387E+01 -0.88117652410E+01  0.17645534270E+01  0.17147395977E+03  0.17120000000E+03 0.  0.
        998    1    1    2    0    0 -0.47874906037E+01 -0.21967279594E+01  0.14325981705E+04  0.14326427551E+04  0.10000000000E+02 0.  1.
</event>
<event>
 5    1  0.9130022E-009  0.3838479E+03  0.7957747E-01  0.3434573E+00
         13   -1    0    0    0    0  0.00000000000E+00  0.00000000000E+00  0.14999999963E+04  0.15000000000E+04  0.10566000000E+00 0.  1.
        994   -1    0    0    0    0 -0.00000000000E+00 -0.00000000000E+00  0.11368683772E-12  0.17120000000E+03  0.17120000000E+03 0.  0.
         13    1    1    2    0    0  0.30490132358E+01 -0.10000325885E+02  0.24007859483E+02  0.26185711381E+02  0.10566000000E+00 0.  1.
        994    1    1    2    0    0 -0.30673510214E+01  0.78948005320E+01  0.24400327608E+01  0.17142674901E+03  0.17120000000E+03 0.  0.
        998    1    1    2    0    0  0.18337785577E-01  0.21055253534E+01  0.14735521040E+04  0.14735875396E+04  0.10000000000E+02 0.  1.
</event>
<event>
 5    1  0.9130022E-009  0.3834549E+03  0.7957747E-01  0.3436251E+00
         13   -1    0    0    0    0  0.00000000000E+00  0.00000000000E+00  0.14999999963E+04  0.15000000000E+04  0.10566000000E+00 0. -1.
        994   -1    0    0    0    0 -0.00000000000E+00 -0.00000000000E+00  0.11368683772E-12  0.17120000000E+03  0.17120000000E+03 0.  0.
         13    1    1    2    0    0  0.11702181448E+01 -0.11506513204E+02  0.26947047016E+02  0.29324456748E+02  0.10566000000E+00 0. -1.
        994    1    1    2    0    0 -0.72665560197E+01  0.88084318712E+01  0.28302632043E+01  0.17160373451E+03  0.17120000000E+03 0.  0.
        998    1    1    2    0    0  0.60963378749E+01  0.26980813328E+01  0.14702226861E+04  0.14702718087E+04  0.10000000000E+02 0. -1.
</event>
<event>
 5    1  0.9130022E-009  0.3845132E+03  0.7957747E-01  0.3431739E+00
         13   -1    0    0    0    0  0.00000000000E+00  0.00000000000E+00  0.14999999963E+04  0.15000000000E+04  0.10566000000E+00 0.  1.
        994   -1    0    0    0    0 -0.00000000000E+00 -0.00000000000E+00  0.11368683772E-12  0.17120000000E+03  0.17120000000E+03 0.  0.
         13    1    1    2    0    0  0.23476827646E+02  0.40111915456E+01  0.13693490319E+03  0.13899075498E+03  0.10566000000E+00 0.  1.
        994    1    1    2    0    0 -0.27445063705E+02  0.39090842717E+01  0.44074883841E+01  0.17348596028E+03  0.17120000000E+03 0.  0.
        998    1    1    2    0    0  0.39682360586E+01 -0.79202758173E+01  0.13586576047E+04  0.13587232847E+04  0.10000000000E+02 0.  1.
</event>
<event>
 5    1  0.9130022E-009  0.3939776E+03  0.7957747E-01  0.3392467E+00
         13   -1    0    0    0    0  0.00000000000E+00  0.00000000000E+00  0.14999999963E+04  0.15000000000E+04  0.10566000000E+00 0. -1.
        994   -1    0    0    0    0 -0.00000000000E+00 -0.00000000000E+00  0.11368683772E-12  0.17120000000E+03  0.17120000000E+03 0.  0.
         13    1    1    2    0    0 -0.76539053103E+02  0.70813976728E+02  0.25806410091E+03  0.27833421869E+03  0.10566000000E+00 0. -1.
        994    1    1    2    0    0  0.18740890389E+01 -0.37300995128E+02  0.29575353735E+02  0.17770486205E+03  0.17120000000E+03 0.  0.
        998    1    1    2    0    0  0.74664964064E+02 -0.33512981600E+02  0.12123605416E+04  0.12151609193E+04  0.10000000000E+02 0. -1.
</event>
<event>
 5    1  0.9130022E-009  0.3762979E+03  0.7957747E-01  0.3467439E+00
         13   -1    0    0    0    0  0.00000000000E+00  0.00000000000E+00  0.14999999963E+04  0.15000000000E+04  0.10566000000E+00 0. -1.
        994   -1    0    0    0    0 -0.00000000000E+00 -0.00000000000E+00  0.11368683772E-12  0.17120000000E+03  0.17120000000E+03 0.  0.
         13    1    1    2    0    0  0.21747344629E+02 -0.13281262024E+02  0.51011844133E+02  0.57022437033E+02  0.10566000000E+00 0. -1.
        994    1    1    2    0    0 -0.12999260554E+02  0.18029939065E+02  0.76876333384E+01  0.17280798357E+03  0.17120000000E+03 0.  0.
        998    1    1    2    0    0 -0.87480840744E+01 -0.47486770414E+01  0.14413005188E+04  0.14413695794E+04  0.10000000000E+02 0. -1.
</event>
<event>
 5    1  0.9130022E-009  0.3829484E+03  0.7957747E-01  0.3438420E+00
         13   -1    0    0    0    0  0.00000000000E+00  0.00000000000E+00  0.14999999963E+04  0.15000000000E+04  0.10566000000E+00 0.  1.
        994   -1    0    0    0    0 -0.00000000000E+00 -0.00000000000E+00  0.11368683772E-12  0.17120000000E+03  0.17120000000E+03 0.  0.
         13    1    1    2    0    0 -0.20431472485E+02  0.85621937637E+01  0.87172601537E+02  0.89943481435E+02  0.10566000000E+00 0.  1.
        994    1    1    2    0    0  0.19422409652E+02 -0.12412490177E+02  0.44130866702E+01  0.17280108577E+03  0.17120000000E+03 0.  0.
        998    1    1    2    0    0  0.10090628332E+01  0.38502964128E+01  0.14084143081E+04  0.14084554328E+04  0.10000000000E+02 0.  1.
</event>
<event>
 5    1  0.9130022E-009  0.4000094E+03  0.7957747E-01  0.3368407E+00
         13   -1    0    0    0    0  0.00000000000E+00  0.00000000000E+00  0.14999999963E+04  0.15000000000E+04  0.10566000000E+00 0. -1.
        994   -1    0    0    0    0 -0.00000000000E+00 -0.00000000000E+00  0.11368683772E-12  0.17120000000E+03  0.17120000000E+03 0.  0.
         13    1    1    2    0    0 -0.50899034882E+02  0.12616467448E+03  0.32316761129E+03  0.35063592655E+03  0.10566000000E+00 0. -1.
        994    1    1    2    0    0  0.96828914459E+02 -0.55563340513E+02  0.78466580697E+02  0.21892822516E+03  0.17120000000E+03 0.  0.
        998    1    1    2    0    0 -0.45929879578E+02 -0.70601333970E+02  0.10983658043E+04  0.11016358483E+04  0.10000000000E+02 0. -1.
</event>
<event>
 5    1  0.9130022E-009  0.3774357E+03  0.7957747E-01  0.3462401E+00
         13   -1    0    0    0    0  0.00000000000E+00  0.00000000000E+00  0.14999999963E+04  0.15000000000E+04  0.10566000000E+00 0. -1.
        994   -1    0    0    0    0 -0.00000000000E+00 -0.00000000000E+00  0.11368683772E-12  0.17120000000E+03  0.17120000000E+03 0.  0.
         13    1    1    2    0    0 -0.33264605629E+02  0.34224022983E+02  0.20273178689E+03  0.20827387334E+03  0.10566000000E+00 0. -1.
        994    1    1    2    0    0  0.22599338531E+02 -0.21663013916E+02  0.87444461706E+01  0.17425820386E+03  0.17120000000E+03 0.  0.
        998    1    1    2    0    0  0.10665267098E+02 -0.12561009068E+02  0.12885237632E+04  0.12886679228E+04  0.10000000000E+02 0. -1.
</event>
<event>
 5    1  0.9130022E-009  0.3709790E+03  0.7957747E-01  0.3491404E+00
         13   -1    0    0    0    0  0.00000000000E+00  0.00000000000E+00  0.14999999963E+04  0.15000000000E+04  0.10566000000E+00 0.  1.
        994   -1    0    0    0    0 -0.00000000000E+00 -0.00000000000E+00  0.11368683772E-12  0.17120000000E+03  0.17120000000E+03 0.  0.
         13    1    1    2    0    0  0.14707512862E+02 -0.43254541217E+02  0.11098292245E+03  0.12001869233E+03  0.10566000000E+00 0.  1.
        994    1    1    2    0    0 -0.14554774743E+02  0.36738004488E+02  0.14158468938E+02  0.17627088439E+03  0.17120000000E+03 0.  0.
        998    1    1    2    0    0 -0.15273811907E+00  0.65165367291E+01  0.13748586049E+04  0.13749104233E+04  0.10000000000E+02 0.  1.
</event>
<event>
 5    1  0.9130022E-009  0.1987876E+03  0.7957747E-01  0.5062300E+00
         13   -1    0    0    0    0  0.00000000000E+00  0.00000000000E+00  0.14999999963E+04  0.15000000000E+04  0.10566000000E+00 0. -1.
        994   -1    0    0    0    0 -0.00000000000E+00 -0.00000000000E+00  0.11368683772E-12  0.17120000000E+03  0.17120000000E+03 0.  0.
         13    1    1    2    0    0 -0.16061645943E+02 -0.11227828889E+03  0.73214054981E+02  0.13499888754E+03  0.10566000000E+00 0. -1.
        994    1    1    2    0    0  0.82717942570E+01  0.11748009998E+03  0.14278013161E+03  0.25212219747E+03  0.17120000000E+03 0.  0.
        998    1    1    2    0    0  0.77898516863E+01 -0.52018110947E+01  0.12840058097E+04  0.12840789150E+04  0.10000000000E+02 0. -1.
</event>
<event>
 5    1  0.9130022E-009  0.3803608E+03  0.7957747E-01  0.3449589E+00
         13   -1    0    0    0    0  0.00000000000E+00  0.00000000000E+00  0.14999999963E+04  0.15000000000E+04  0.10566000000E+00 0.  1.
        994   -1    0    0    0    0 -0.00000000000E+00 -0.00000000000E+00  0.11368683772E-12  0.17120000000E+03  0.17120000000E+03 0.  0.
         13    1    1    2    0    0 -0.14670968466E+02  0.21626733298E+02  0.91446511045E+02  0.95107457411E+02  0.10566000000E+00 0.  1.
        994    1    1    2    0    0 -0.15315590690E+02 -0.12982840926E+02  0.52982680110E+01  0.17245472774E+03  0.17120000000E+03 0.  0.
        998    1    1    2    0    0  0.29986559156E+02 -0.86438923721E+01  0.14032552172E+04  0.14036378148E+04  0.10000000000E+02 0.  1.
</event>
<event>
 5    1  0.9130022E-009  0.3694507E+03  0.7957747E-01  0.3498419E+00
         13   -1    0    0    0    0  0.00000000000E+00  0.00000000000E+00  0.14999999963E+04  0.15000000000E+04  0.10566000000E+00 0. -1.
        994   -1    0    0    0    0 -0.00000000000E+00 -0.00000000000E+00  0.11368683772E-12  0.17120000000E+03  0.17120000000E+03 0.  0.
         13    1    1    2    0    0 -0.19235256800E+02  0.44322608212E+02  0.13171319860E+03  0.14029563982E+03  0.10566000000E+00 0. -1.
        994    1    1    2    0    0 -0.16230702972E+02 -0.13007049387E+02  0.11056586194E+02  0.17281292530E+03  0.17120000000E+03 0.  0.
        998    1    1    2    0    0  0.35465959772E+02 -0.31315558825E+02  0.13572302115E+04  0.13580914349E+04  0.10000000000E+02 0. -1.
</event>
<event>
 5    1  0.9130022E-009  0.3260232E+03  0.7957747E-01  0.3726136E+00
         13   -1    0    0    0    0  0.00000000000E+00  0.00000000000E+00  0.14999999963E+04  0.15000000000E+04  0.10566000000E+00 0.  1.
        994   -1    0    0    0    0 -0.00000000000E+00 -0.00000000000E+00  0.11368683772E-12  0.17120000000E+03  0.17120000000E+03 0.  0.
         13    1    1    2    0    0 -0.13654942639E+03  0.16846590283E+03  0.81360410102E+03  0.84200840295E+03  0.10566000000E+00 0.  1.
        994    1    1    2    0    0  0.12741902241E+03 -0.15084211312E+03  0.16878927239E+03  0.31110803403E+03  0.17120000000E+03 0.  0.
        998    1    1    2    0    0  0.91304039770E+01 -0.17623789709E+02  0.51760662287E+03  0.51808356303E+03  0.10000000000E+02 0. -1.
</event>
<event>
 5    1  0.9130022E-009  0.3805325E+03  0.7957747E-01  0.3448843E+00
         13   -1    0    0    0    0  0.00000000000E+00  0.00000000000E+00  0.14999999963E+04  0.15000000000E+04  0.10566000000E+00 0.  1.
        994   -1    0    0    0    0 -0.00000000000E+00 -0.00000000000E+00  0.11368683772E-12  0.17120000000E+03  0.17120000000E+03 0.  0.
         13    1    1    2    0    0 -0.12093386313E+02  0.14641655306E+02  0.44044929453E+02  0.47964518524E+02  0.10566000000E+00 0.  1.
        994    1    1    2    0    0  0.12902598479E+02 -0.14940225103E+02  0.51660671891E+01  0.17241176185E+03  0.17120000000E+03 0.  0.
        998    1    1    2    0    0 -0.80921216615E+00  0.29856979652E+00  0.14507889996E+04  0.14508237196E+04  0.10000000000E+02 0.  1.
</event>
<event>
 5    1  0.9130022E-009  0.3737914E+03  0.7957747E-01  0.3478646E+00
         13   -1    0    0    0    0  0.00000000000E+00  0.00000000000E+00  0.14999999963E+04  0.15000000000E+04  0.10566000000E+00 0. -1.
        994   -1    0    0    0    0 -0.00000000000E+00 -0.00000000000E+00  0.11368683772E-12  0.17120000000E+03  0.17120000000E+03 0.  0.
         13    1    1    2    0    0 -0.47931912729E+02  0.51126970075E+02  0.28667479313E+03  0.29511672861E+03  0.10566000000E+00 0. -1.
        994    1    1    2    0    0  0.34782434592E+02 -0.52852284947E+02  0.21089462035E+02  0.18373183499E+03  0.17120000000E+03 0.  0.
        998    1    1    2    0    0  0.13149478137E+02  0.17253148722E+01  0.11922357411E+04  0.11923514364E+04  0.10000000000E+02 0. -1.
</event>
<event>
 5    1  0.9130022E-009  0.3830198E+03  0.7957747E-01  0.3438114E+00
         13   -1    0    0    0    0  0.00000000000E+00  0.00000000000E+00  0.14999999963E+04  0.15000000000E+04  0.10566000000E+00 0.  1.
        994   -1    0    0    0    0 -0.00000000000E+00 -0.00000000000E+00  0.11368683772E-12  0.17120000000E+03  0.17120000000E+03 0.  0.
         13    1    1    2    0    0  0.59319936770E+01 -0.34254841446E+02  0.20701696270E+03  0.20991573719E+03  0.10566000000E+00 0.  1.
        994    1    1    2    0    0 -0.43943640938E+01  0.31553101242E+02  0.59830025284E+01  0.17424162807E+03  0.17120000000E+03 0.  0.
        998    1    1    2    0    0 -0.15376295832E+01  0.27017402042E+01  0.12870000311E+04  0.12870426347E+04  0.10000000000E+02 0.  1.
</event>
<event>
 5    1  0.9130022E-009  0.3752138E+03  0.7957747E-01  0.3472267E+00
         13   -1    0    0    0    0  0.00000000000E+00  0.00000000000E+00  0.14999999963E+04  0.15000000000E+04  0.10566000000E+00 0.  1.
        994   -1    0    0    0    0 -0.00000000000E+00 -0.00000000000E+00  0.11368683772E-12  0.17120000000E+03  0.17120000000E+03 0.  0.
         13    1    1    2    0    0  0.23334474802E+02  0.38236255888E+02  0.16967068418E+03  0.17548407681E+03  0.10566000000E+00 0.  1.
        994    1    1    2    0    0  0.12620184572E+02 -0.13822915666E+02  0.77599165023E+01  0.17239489076E+03  0.17120000000E+03 0.  0.
        998    1    1    2    0    0 -0.35954659374E+02 -0.24413340222E+02  0.13225693956E+04  0.13233210324E+04  0.10000000000E+02 0.  1.
</event>
<event>
 5    1  0.9130022E-009  0.2359715E+03  0.7957747E-01  0.4495101E+00
         13   -1    0    0    0    0  0.00000000000E+00  0.00000000000E+00  0.14999999963E+04  0.15000000000E+04  0.10566000000E+00 0.  1.
        994   -1    0    0    0    0 -0.00000000000E+00 -0.00000000000E+00  0.11368683772E-12  0.17120000000E+03  0.17120000000E+03 0.  0.
         13    1    1    2    0    0  0.15400112886E+03  0.48731308348E+02  0.29366218860E+03  0.33515456178E+03  0.10566000000E+00 0.  1.
        994    1    1    2    0    0 -0.10218426348E+03 -0.39251066559E+02  0.96570255103E+02  0.22498338628E+03  0.17120000000E+03 0.  0.
        998    1    1    2    0    0 -0.51816865379E+02 -0.94802417897E+01  0.11097675526E+04  0.11110620519E+04  0.10000000000E+02 0.  1.
</event>
<event>
 5    1  0.9130022E-009  0.3838037E+03  0.7957747E-01  0.3434762E+00
         13   -1    0    0    0    0  0.00000000000E+00  0.00000000000E+00  0.14999999963E+04  0.15000000000E+04  0.10566000000E+00 0.  1.
        994   -1    0    0    0    0 -0.00000000000E+00 -0.00000000000E+00  0.11368683772E-12  0.17120000000E+03  0.17120000000E+03 0.  0.
         13    1    1    2    0    0  0.52782233548E+00 -0.18455615723E+02  0.96207364287E+02  0.97963036168E+02  0.10566000000E+00 0.  1.
        994    1    1    2    0    0 -0.30314279828E+02 -0.21444236863E+02  0.67906850945E+01  0.17531219085E+03  0.17120000000E+03 0.  0.
        998    1    1    2    0    0  0.29786457492E+02  0.39899852586E+02  0.13970019469E+04  0.13979247730E+04  0.10000000000E+02 0.  1.
</event>
<event>
 5    1  0.9130022E-009  0.3892174E+03  0.7957747E-01  0.3411980E+00
         13   -1    0    0    0    0  0.00000000000E+00  0.00000000000E+00  0.14999999963E+04  0.15000000000E+04  0.10566000000E+00 0. -1.
        994   -1    0    0    0    0 -0.00000000000E+00 -0.00000000000E+00  0.11368683772E-12  0.17120000000E+03  0.17120000000E+03 0.  0.
         13    1    1    2    0    0 -0.72008634164E+02 -0.39682795561E+02  0.16844171547E+03  0.18743689693E+03  0.10566000000E+00 0. -1.
        994    1    1    2    0    0  0.56803170990E+02 -0.54430010914E+02  0.45093412167E+02  0.19373198534E+03  0.17120000000E+03 0.  0.
        998    1    1    2    0    0  0.15205463174E+02  0.94112806475E+02  0.12864648686E+04  0.12900311177E+04  0.10000000000E+02 0. -1.
</event>
<event>
 5    1  0.9130022E-009  0.3842769E+03  0.7957747E-01  0.3432745E+00
         13   -1    0    0    0    0  0.00000000000E+00  0.00000000000E+00  0.14999999963E+04  0.15000000000E+04  0.10566000000E+00 0. -1.
        994   -1    0    0    0    0 -0.00000000000E+00 -0.00000000000E+00  0.11368683772E-12  0.17120000000E+03  0.17120000000E+03 0.  0.
         13    1    1    2    0    0  0.84175563644E+01 -0.13689738418E+02  0.62379997924E+02  0.64416919346E+02  0.10566000000E+00 0. -1.
        994    1    1    2    0    0 -0.15159569927E+02  0.10309102382E+02  0.30982451171E+01  0.17220664701E+03  0.17120000000E+03 0.  0.
        998    1    1    2    0    0  0.67420135624E+01  0.33806360368E+01  0.14345217532E+04  0.14345764336E+04  0.10000000000E+02 0. -1.
</event>
<event>
 5    1  0.9130022E-009  0.3859564E+03  0.7957747E-01  0.3425626E+00
         13   -1    0    0    0    0  0.00000000000E+00  0.00000000000E+00  0.14999999963E+04  0.15000000000E+04  0.10566000000E+00 0. -1.
        994   -1    0    0    0    0 -0.00000000000E+00 -0.00000000000E+00  0.11368683772E-12  0.17120000000E+03  0.17120000000E+03 0.  0.
         13    1    1    2    0    0  0.58328897820E+01  0.10934642784E+02  0.65531146532E+02  0.66692813300E+02  0.10566000000E+00 0. -1.
        994    1    1    2    0    0 -0.60643487272E+01 -0.98334881145E+01  0.15937764742E+01  0.17159677718E+03  0.17120000000E+03 0.  0.
        998    1    1    2    0    0  0.23145894516E+00 -0.11011546695E+01  0.14328750733E+04  0.14329104095E+04  0.10000000000E+02 0.  0.
</event>
<event>
 5    1  0.9130022E-009  0.3728167E+03  0.7957747E-01  0.3483045E+00
         13   -1    0    0    0    0  0.00000000000E+00  0.00000000000E+00  0.14999999963E+04  0.15000000000E+04  0.10566000000E+00 0.  1.
        994   -1    0    0    0    0 -0.00000000000E+00 -0.00000000000E+00  0.11368683772E-12  0.17120000000E+03  0.17120000000E+03 0.  0.
         13    1    1    2    0    0 -0.23199994100E+02  0.54759984876E+02  0.23665054387E+03  0.24400898908E+03  0.10566000000E+00 0.  1.
        994    1    1    2    0    0 -0.85897974404E+01 -0.31909153612E+02  0.11552774600E+02  0.17474233976E+03  0.17120000000E+03 0.  0.
        998    1    1    2    0    0  0.31789791541E+02 -0.22850831264E+02  0.12517966778E+04  0.12524486712E+04  0.10000000000E+02 0.  1.
</event>
<event>
 5    1  0.9130022E-009  0.3847501E+03  0.7957747E-01  0.3430733E+00
         13   -1    0    0    0    0  0.00000000000E+00  0.00000000000E+00  0.14999999963E+04  0.15000000000E+04  0.10566000000E+00 0.  1.
        994   -1    0    0    0    0 -0.00000000000E+00 -0.00000000000E+00  0.11368683772E-12  0.17120000000E+03  0.17120000000E+03 0.  0.
         13    1    1    2    0    0 -0.10804793987E+01  0.10130696634E+02  0.28626269676E+02  0.30385406524E+02  0.10566000000E+00 0.  1.
        994    1    1    2    0    0  0.29915675096E+01 -0.11812748497E+02  0.22431578099E+01  0.17164778548E+03  0.17120000000E+03 0.  0.
        998    1    1    2    0    0 -0.19110881109E+01  0.16820518634E+01  0.14691305688E+04  0.14691668080E+04  0.10000000000E+02 0.  1.
</event>
<event>
 5    1  0.9130022E-009  0.3782013E+03  0.7957747E-01  0.3459028E+00
         13   -1    0    0    0    0  0.00000000000E+00  0.00000000000E+00  0.14999999963E+04  0.15000000000E+04  0.10566000000E+00 0.  1.
        994   -1    0    0    0    0 -0.00000000000E+00 -0.00000000000E+00  0.11368683772E-12  0.17120000000E+03  0.17120000000E+03 0.  0.
         13    1    1    2    0    0 -0.45881990078E+02  0.42512192258E+01  0.60615654960E+02  0.76141307243E+02  0.10566000000E+00 0.  1.
        994    1    1    2    0    0  0.48454416782E+02 -0.12927358313E+02  0.24451794074E+02  0.18006187084E+03  0.17120000000E+03 0.  0.
        998    1    1    2    0    0 -0.25724267040E+01  0.86761390873E+01  0.14149325472E+04  0.14149968219E+04  0.10000000000E+02 0.  1.
</event>
<event>
 5    1  0.9130022E-009  0.3781163E+03  0.7957747E-01  0.3459402E+00
         13   -1    0    0    0    0  0.00000000000E+00  0.00000000000E+00  0.14999999963E+04  0.15000000000E+04  0.10566000000E+00 0. -1.
        994   -1    0    0    0    0 -0.00000000000E+00 -0.00000000000E+00  0.11368683772E-12  0.17120000000E+03  0.17120000000E+03 0.  0.
         13    1    1    2    0    0  0.48438170530E+02 -0.43713788934E+01  0.19966960363E+03  0.20550748672E+03  0.10566000000E+00 0. -1.
        994    1    1    2    0    0 -0.54530006153E+02 -0.31000636847E+02  0.18438597997E+02  0.18325933251E+03  0.17120000000E+03 0.  0.
        998    1    1    2    0    0  0.60918356228E+01  0.35372015740E+02  0.12818917946E+04  0.12824331808E+04  0.10000000000E+02 0. -1.
</event>
<event>
 5    1  0.9130022E-009  0.3852757E+03  0.7957747E-01  0.3428504E+00
         13   -1    0    0    0    0  0.00000000000E+00  0.00000000000E+00  0.14999999963E+04  0.15000000000E+04  0.10566000000E+00 0. -1.
        994   -1    0    0    0    0 -0.00000000000E+00 -0.00000000000E+00  0.11368683772E-12  0.17120000000E+03  0.17120000000E+03 0.  0.
         13    1    1    2    0    0 -0.15387918061E+02  0.53573294391E+01  0.85324044395E+02  0.86865946820E+02  0.10566000000E+00 0. -1.
        994    1    1    2    0    0  0.12485760062E+02 -0.14423459987E+02  0.26900007623E+01  0.17228060398E+03  0.17120000000E+03 0.  0.
        998    1    1    2    0    0  0.29021579996E+01  0.90661305481E+01  0.14119859511E+04  0.14120534492E+04  0.10000000000E+02 0. -1.
</event>
<event>
 5    1  0.9130022E-009  0.3848706E+03  0.7957747E-01  0.3430221E+00
         13   -1    0    0    0    0  0.00000000000E+00  0.00000000000E+00  0.14999999963E+04  0.15000000000E+04  0.10566000000E+00 0. -1.
        994   -1    0    0    0    0 -0.00000000000E+00 -0.00000000000E+00  0.11368683772E-12  0.17120000000E+03  0.17120000000E+03 0.  0.
         13    1    1    2    0    0 -0.10383082055E+02  0.76339861795E+01  0.47219722964E+02  0.48946905303E+02  0.10566000000E+00 0. -1.
        994    1    1    2    0    0  0.95882343288E+01 -0.12563568695E+02  0.25166106555E+01  0.17194636031E+03  0.17120000000E+03 0.  0.
        998    1    1    2    0    0  0.79484772657E+00  0.49295825158E+01  0.14502636627E+04  0.14503067344E+04  0.10000000000E+02 0. -1.
</event>
<event>
 5    1  0.9130022E-009  0.3855472E+03  0.7957747E-01  0.3427355E+00
         13   -1    0    0    0    0  0.00000000000E+00  0.00000000000E+00  0.14999999963E+04  0.15000000000E+04  0.10566000000E+00 0.  1.
        994   -1    0    0    0    0 -0.00000000000E+00 -0.00000000000E+00  0.11368683772E-12  0.17120000000E+03  0.17120000000E+03 0.  0.
         13    1    1    2    0    0  0.28599314476E+01 -0.13089070264E+02  0.74774848981E+02  0.75965730250E+02  0.10566000000E+00 0.  1.
        994    1    1    2    0    0 -0.71721622788E+01 -0.83605597066E+01  0.17571378758E+01  0.17156301001E+03  0.17120000000E+03 0.  0.
        998    1    1    2    0    0  0.43122308311E+01  0.21449629971E+02  0.14234680094E+04  0.14236712597E+04  0.10000000000E+02 0.  1.
</event>
<event>
 5    1  0.9130022E-009  0.3751447E+03  0.7957747E-01  0.3472576E+00
         13   -1    0    0    0    0  0.00000000000E+00  0.00000000000E+00  0.14999999963E+04  0.15000000000E+04  0.10566000000E+00 0.  1.
        994   -1    0    0    0    0 -0.00000000000E+00 -0.00000000000E+00  0.11368683772E-12  0.17120000000E+03  0.17120000000E+03 0.  0.
         13    1    1    2    0    0  0.39731424811E+02  0.30880722843E+02  0.20374664041E+03  0.20986879187E+03  0.10566000000E+00 0.  1.
        994    1    1    2    0    0  0.41600100337E+01 -0.35286592165E+02  0.10905711568E+02  0.17518796710E+03  0.17120000000E+03 0.  0.
        998    1    1    2    0    0 -0.43891434845E+02  0.44058693220E+01  0.12853476443E+04  0.12861432410E+04  0.10000000000E+02 0.  1.
</event>
<event>
 5    1  0.9130022E-009  0.3739824E+03  0.7957747E-01  0.3477786E+00
         13   -1    0    0    0    0  0.00000000000E+00  0.00000000000E+00  0.14999999963E+04  0.15000000000E+04  0.10566000000E+00 0. -1.
        994   -1    0    0    0    0 -0.00000000000E+00 -0.00000000000E+00  0.11368683772E-12  0.17120000000E+03  0.17120000000E+03 0.  0.
         13    1    1    2    0    0 -0.43951461593E+02  0.64208149775E+02  0.33055275258E+03  0.33958732437E+03  0.10566000000E+00 0. -1.
        994    1    1    2    0    0  0.34910761460E+02 -0.68010084500E+02  0.27405664906E+02  0.18948520609E+03  0.17120000000E+03 0.  0.
        998    1    1    2    0    0  0.90407001329E+01  0.38019347251E+01  0.11420415788E+04  0.11421274695E+04  0.10000000000E+02 0. -1.
</event>
<event>
 5    1  0.9130022E-009  0.3851831E+03  0.7957747E-01  0.3428896E+00
         13   -1    0    0    0    0  0.00000000000E+00  0.00000000000E+00  0.14999999963E+04  0.15000000000E+04  0.10566000000E+00 0. -1.
        994   -1    0    0    0    0 -0.00000000000E+00 -0.00000000000E+00  0.11368683772E-12  0.17120000000E+03  0.17120000000E+03 0.  0.
         13    1    1    2    0    0 -0.12184400440E+02  0.82597810422E+00  0.47697186967E+02  0.49235908263E+02  0.10566000000E+00 0. -1.
        994    1    1    2    0    0  0.10968830483E+02 -0.19319033415E+01  0.19470766473E+01  0.17157295416E+03  0.17120000000E+03 0.  0.
        998    1    1    2    0    0  0.12155699567E+01  0.11059252373E+01  0.14503557327E+04  0.14503911376E+04  0.10000000000E+02 0. -1.
</event>
<event>
 5    1  0.9130022E-009  0.3846387E+03  0.7957747E-01  0.3431206E+00
         13   -1    0    0    0    0  0.00000000000E+00  0.00000000000E+00  0.14999999963E+04  0.15000000000E+04  0.10566000000E+00 0. -1.
        994   -1    0    0    0    0 -0.00000000000E+00 -0.00000000000E+00  0.11368683772E-12  0.17120000000E+03  0.17120000000E+03 0.  0.
         13    1    1    2    0    0 -0.17693430905E+02 -0.14024119135E+01  0.83531543045E+02  0.85396452525E+02  0.10566000000E+00 0. -1.
        994    1    1    2    0    0  0.17232331779E+02  0.75995904177E+00  0.27898737081E+01  0.17208937850E+03  0.17120000000E+03 0.  0.
        998    1    1    2    0    0  0.46109912627E+00  0.64245287169E+00  0.14136785795E+04  0.14137141690E+04  0.10000000000E+02 0.  0.
</event>
<event>
 5    1  0.9130022E-009  0.3803145E+03  0.7957747E-01  0.3449790E+00
         13   -1    0    0    0    0  0.00000000000E+00  0.00000000000E+00  0.14999999963E+04  0.15000000000E+04  0.10566000000E+00 0. -1.
        994   -1    0    0    0    0 -0.00000000000E+00 -0.00000000000E+00  0.11368683772E-12  0.17120000000E+03  0.17120000000E+03 0.  0.
         13    1    1    2    0    0  0.53438050335E+01  0.15435628271E+02  0.32077152002E+02  0.35996801482E+02  0.10566000000E+00 0. -1.
        994    1    1    2    0    0 -0.47702940373E+01 -0.93992504462E+01  0.43455795505E+01  0.17157921108E+03  0.17120000000E+03 0.  0.
        998    1    1    2    0    0 -0.57351099616E+00 -0.60363778246E+01  0.14635772647E+04  0.14636239874E+04  0.10000000000E+02 0. -1.
</event>
<event>
 5    1  0.9130022E-009  0.3835997E+03  0.7957747E-01  0.3435633E+00
         13   -1    0    0    0    0  0.00000000000E+00  0.00000000000E+00  0.14999999963E+04  0.15000000000E+04  0.10566000000E+00 0. -1.
        994   -1    0    0    0    0 -0.00000000000E+00 -0.00000000000E+00  0.11368683772E-12  0.17120000000E+03  0.17120000000E+03 0.  0.
         13    1    1    2    0    0 -0.16990498599E+02 -0.36050684982E+00  0.58365222421E+02  0.60789122054E+02  0.10566000000E+00 0. -1.
        994    1    1    2    0    0  0.21231860645E+02  0.54539530200E+01  0.39161049973E+01  0.17264215415E+03  0.17120000000E+03 0.  0.
        998    1    1    2    0    0 -0.42413620455E+01 -0.50934461702E+01  0.14377186689E+04  0.14377687238E+04  0.10000000000E+02 0. -1.
</event>
<event>
 5    1  0.9130022E-009  0.4568244E+03  0.7957747E-01  0.3172514E+00
         13   -1    0    0    0    0  0.00000000000E+00  0.00000000000E+00  0.14999999963E+04  0.15000000000E+04  0.10566000000E+00 0.  1.
        994   -1    0    0    0    0 -0.00000000000E+00 -0.00000000000E+00  0.11368683772E-12  0.17120000000E+03  0.17120000000E+03 0.  0.
         13    1    1    2    0    0 -0.39554923921E+02  0.27483224608E+02 -0.62841011821E+01  0.48573868828E+02  0.10566000000E+00 0.  1.
        994    1    1    2    0    0 -0.32127938472E+02 -0.58325500523E+02  0.90715025594E+02  0.20487245864E+03  0.17120000000E+03 0.  0.
        998    1    1    2    0    0  0.71682862393E+02  0.30842275915E+02  0.14155690719E+04  0.14177536725E+04  0.10000000000E+02 0.  1.
</event>
<event>
 5    1  0.9130022E-009  0.3840775E+03  0.7957747E-01  0.3433594E+00
         13   -1    0    0    0    0  0.00000000000E+00  0.00000000000E+00  0.14999999963E+04  0.15000000000E+04  0.10566000000E+00 0.  1.
        994   -1    0    0    0    0 -0.00000000000E+00 -0.00000000000E+00  0.11368683772E-12  0.17120000000E+03  0.17120000000E+03 0.  0.
         13    1    1    2    0    0  0.13196135962E+02  0.73315128307E+01  0.54585685982E+02  0.56634771677E+02  0.10566000000E+00 0.  1.
        994    1    1    2    0    0 -0.67874586847E+01 -0.49464212396E+01  0.23215337808E+01  0.17142160365E+03  0.17120000000E+03 0.  0.
        998    1    1    2    0    0 -0.64086772768E+01 -0.23850915911E+01  0.14430927765E+04  0.14431436247E+04  0.10000000000E+02 0.  1.
</event>
<event>
 5    1  0.9130022E-009  0.3803374E+03  0.7957747E-01  0.3449690E+00
         13   -1    0    0    0    0  0.00000000000E+00  0.00000000000E+00  0.14999999963E+04  0.15000000000E+04  0.10566000000E+00 0.  1.
        994   -1    0    0    0    0 -0.00000000000E+00 -0.00000000000E+00  0.11368683772E-12  0.17120000000E+03  0.17120000000E+03 0.  0.
         13    1    1    2    0    0  0.10082139190E+02 -0.28027178819E+02  0.11769712884E+03  0.12140756807E+03  0.10566000000E+00 0.  1.
        994    1    1    2    0    0 -0.28548642461E+01  0.64744209964E+01  0.41301095026E+01  0.17139593397E+03  0.17120000000E+03 0.  0.
        998    1    1    2    0    0 -0.72272749435E+01  0.21552757823E+02  0.13781727579E+04  0.13783964980E+04  0.10000000000E+02 0.  1.
</event>
<event>
 5    1  0.9130022E-009  0.3807533E+03  0.7957747E-01  0.3447885E+00
         13   -1    0    0    0    0  0.00000000000E+00  0.00000000000E+00  0.14999999963E+04  0.15000000000E+04  0.10566000000E+00 0. -1.
        994   -1    0    0    0    0 -0.00000000000E+00 -0.00000000000E+00  0.11368683772E-12  0.17120000000E+03  0.17120000000E+03 0.  0.
         13    1    1    2    0    0 -0.12832885800E+02 -0.43356669185E+01  0.22729336492E+02  0.26459683804E+02  0.10566000000E+00 0. -1.
        994    1    1    2    0    0  0.10159528109E+02  0.86377436878E+01  0.43465676077E+01  0.17177356979E+03  0.17120000000E+03 0.  0.
        998    1    1    2    0    0  0.26733576913E+01 -0.43020767693E+01  0.14729240922E+04  0.14729667464E+04  0.10000000000E+02 0. -1.
</event>
<event>
 5    1  0.9130022E-009  0.4185116E+03  0.7957747E-01  0.3298897E+00
         13   -1    0    0    0    0  0.00000000000E+00  0.00000000000E+00  0.14999999963E+04  0.15000000000E+04  0.10566000000E+00 0. -1.
        994   -1    0    0    0    0 -0.00000000000E+00 -0.00000000000E+00  0.11368683772E-12  0.17120000000E+03  0.17120000000E+03 0.  0.
         13    1    1    2    0    0 -0.36240365423E+02 -0.51616636428E+02  0.27854178883E+02  0.68945686503E+02  0.10566000000E+00 0. -1.
        994    1    1    2    0    0  0.84590466078E+02  0.10052419138E+03  0.11728680696E+03  0.24561411826E+03  0.17120000000E+03 0.  0.
        998    1    1    2    0    0 -0.48350100655E+02 -0.48907554950E+02  0.13548590104E+04  0.13566401952E+04  0.10000000000E+02 0. -1.
</event>
<event>
 5    1  0.9130022E-009  0.3830629E+03  0.7957747E-01  0.3437929E+00
         13   -1    0    0    0    0  0.00000000000E+00  0.00000000000E+00  0.14999999963E+04  0.15000000000E+04  0.10566000000E+00 0.  1.
        994   -1    0    0    0    0 -0.00000000000E+00 -0.00000000000E+00  0.11368683772E-12  0.17120000000E+03  0.17120000000E+03 0.  0.
         13    1    1    2    0    0 -0.19396175622E+02  0.88728323548E+01  0.81788622954E+02  0.84524131415E+02  0.10566000000E+00 0.  1.
        994    1    1    2    0    0  0.23108364067E+02 -0.76310096747E+01  0.45573266519E+01  0.17298103371E+03  0.17120000000E+03 0.  0.
        998    1    1    2    0    0 -0.37121884452E+01 -0.12418226801E+01  0.14136540467E+04  0.14136948349E+04  0.10000000000E+02 0.  1.
</event>
<event>
 5    1  0.9130022E-009  0.3733450E+03  0.7957747E-01  0.3480658E+00
         13   -1    0    0    0    0  0.00000000000E+00  0.00000000000E+00  0.14999999963E+04  0.15000000000E+04  0.10566000000E+00 0. -1.
        994   -1    0    0    0    0 -0.00000000000E+00 -0.00000000000E+00  0.11368683772E-12  0.17120000000E+03  0.17120000000E+03 0.  0.
         13    1    1    2    0    0 -0.52137847254E+02  0.28227895001E+02  0.32761331327E+03  0.33293492362E+03  0.10566000000E+00 0. -1.
        994    1    1    2    0    0 -0.14876501733E+02 -0.80946668836E+01  0.85121609146E+01  0.17224613441E+03  0.17120000000E+03 0.  0.
        998    1    1    2    0    0  0.67014348987E+02 -0.20133228117E+02  0.11638745221E+04  0.11660189420E+04  0.10000000000E+02 0. -1.
</event>
<event>
 5    1  0.9130022E-009  0.3851914E+03  0.7957747E-01  0.3428861E+00
         13   -1    0    0    0    0  0.00000000000E+00  0.00000000000E+00  0.14999999963E+04  0.15000000000E+04  0.10566000000E+00 0.  1.
        994   -1    0    0    0    0 -0.00000000000E+00 -0.00000000000E+00  0.11368683772E-12  0.17120000000E+03  0.17120000000E+03 0.  0.
         13    1    1    2    0    0 -0.48979000599E+00 -0.14472926101E+02  0.73935325622E+02  0.75340221814E+02  0.10566000000E+00 0.  1.
        994    1    1    2    0    0  0.95550404021E+01 -0.16314925299E+01  0.18440047199E+01  0.17148411273E+03  0.17120000000E+03 0.  0.
        998    1    1    2    0    0 -0.90652503961E+01  0.16104418631E+02  0.14242206659E+04  0.14243756655E+04  0.10000000000E+02 0.  1.
</event>
<event>
 5    1  0.9130022E-009  0.3792839E+03  0.7957747E-01  0.3454282E+00
         13   -1    0    0    0    0  0.00000000000E+00  0.00000000000E+00  0.14999999963E+04  0.15000000000E+04  0.10566000000E+00 0. -1.
        994   -1    0    0    0    0 -0.00000000000E+00 -0.00000000000E+00  0.11368683772E-12  0.17120000000E+03  0.17120000000E+03 0.  0.
         13    1    1    2    0    0  0.15328048918E+02 -0.34452403457E+00  0.25188924313E+02  0.29488317221E+02  0.10566000000E+00 0. -1.
        994    1    1    2    0    0  0.20760759416E+01 -0.49900233381E+01  0.45929388278E+01  0.17134685731E+03  0.17120000000E+03 0.  0.
        998    1    1    2    0    0 -0.17404124860E+02  0.53345473727E+01  0.14702181331E+04  0.14703648255E+04  0.10000000000E+02 0. -1.
</event>
<event>
 5    1  0.9130022E-009  0.3819017E+03  0.7957747E-01  0.3442920E+00
         13   -1    0    0    0    0  0.00000000000E+00  0.00000000000E+00  0.14999999963E+04  0.15000000000E+04  0.10566000000E+00 0.  1.
        994   -1    0    0    0    0 -0.00000000000E+00 -0.00000000000E+00  0.11368683772E-12  0.17120000000E+03  0.17120000000E+03 0.  0.
         13    1    1    2    0    0  0.45682444215E+01 -0.25143887547E+02  0.90680587834E+02  0.94212865958E+02  0.10566000000E+00 0.  1.
        994    1    1    2    0    0 -0.24120473903E+00  0.37634828218E+02  0.78960349960E+01  0.17546573980E+03  0.17120000000E+03 0.  0.
        998    1    1    2    0    0 -0.43270396825E+01 -0.12490940671E+02  0.14014233734E+04  0.14015213942E+04  0.10000000000E+02 0.  1.
</event>
<event>
 5    1  0.9130022E-009  0.3843662E+03  0.7957747E-01  0.3432365E+00
         13   -1    0    0    0    0  0.00000000000E+00  0.00000000000E+00  0.14999999963E+04  0.15000000000E+04  0.10566000000E+00 0.  1.
        994   -1    0    0    0    0 -0.00000000000E+00 -0.00000000000E+00  0.11368683772E-12  0.17120000000E+03  0.17120000000E+03 0.  0.
         13    1    1    2    0    0  0.22518254438E+01  0.13276739731E+02  0.48066724243E+02  0.49917568843E+02  0.10566000000E+00 0.  1.
        994    1    1    2    0    0 -0.25789463483E+02  0.23255850056E+01  0.41578409896E+01  0.17319709124E+03  0.17120000000E+03 0.  0.
        998    1    1    2    0    0  0.23537638039E+02 -0.15602324736E+02  0.14477754310E+04  0.14480853399E+04  0.10000000000E+02 0.  1.
</event>
<event>
 5    1  0.9130022E-009  0.3791482E+03  0.7957747E-01  0.3454876E+00
         13   -1    0    0    0    0  0.00000000000E+00  0.00000000000E+00  0.14999999963E+04  0.15000000000E+04  0.10566000000E+00 0.  1.
        994   -1    0    0    0    0 -0.00000000000E+00 -0.00000000000E+00  0.11368683772E-12  0.17120000000E+03  0.17120000000E+03 0.  0.
         13    1    1    2    0    0 -0.49659227649E+02 -0.51215020043E+02  0.29412251389E+03  0.30265009749E+03  0.10566000000E+00 0.  1.
        994    1    1    2    0    0  0.50272421241E+02  0.12336654919E+03  0.66559724228E+02  0.22690583660E+03  0.17120000000E+03 0.  0.
        998    1    1    2    0    0 -0.61319359218E+00 -0.72151529142E+02  0.11393177582E+04  0.11416440659E+04  0.10000000000E+02 0.  1.
</event>
<event>
 5    1  0.9130022E-009  0.3709681E+03  0.7957747E-01  0.3491453E+00
         13   -1    0    0    0    0  0.00000000000E+00  0.00000000000E+00  0.14999999963E+04  0.15000000000E+04  0.10566000000E+00 0.  1.
        994   -1    0    0    0    0 -0.00000000000E+00 -0.00000000000E+00  0.11368683772E-12  0.17120000000E+03  0.17120000000E+03 0.  0.
         13    1    1    2    0    0  0.71546305806E+01  0.37070182987E+02  0.83367047270E+02  0.91517555365E+02  0.10566000000E+00 0.  1.
        994    1    1    2    0    0 -0.13000516022E+02 -0.33001281580E+01  0.93841284793E+01  0.17198083071E+03  0.17120000000E+03 0.  0.
        998    1    1    2    0    0  0.58458854411E+01 -0.33770054829E+02  0.14072488205E+04  0.14077016139E+04  0.10000000000E+02 0.  1.
</event>
<event>
 5    1  0.9130022E-009  0.3813109E+03  0.7957747E-01  0.3445470E+00
         13   -1    0    0    0    0  0.00000000000E+00  0.00000000000E+00  0.14999999963E+04  0.15000000000E+04  0.10566000000E+00 0. -1.
        994   -1    0    0    0    0 -0.00000000000E+00 -0.00000000000E+00  0.11368683772E-12  0.17120000000E+03  0.17120000000E+03 0.  0.
         13    1    1    2    0    0 -0.18246309746E+01 -0.18589063944E+02  0.53859327310E+02  0.57006323148E+02  0.10566000000E+00 0. -1.
        994    1    1    2    0    0  0.29235291363E+01 -0.10712739866E+02  0.38833993795E+01  0.17160370220E+03  0.17120000000E+03 0.  0.
        998    1    1    2    0    0 -0.10988981617E+01  0.29301803810E+02  0.14422572696E+04  0.14425899747E+04  0.10000000000E+02 0. -1.
</event>
<event>
 5    1  0.9130022E-009  0.3840299E+03  0.7957747E-01  0.3433797E+00
         13   -1    0    0    0    0  0.00000000000E+00  0.00000000000E+00  0.14999999963E+04  0.15000000000E+04  0.10566000000E+00 0.  1.
        994   -1    0    0    0    0 -0.00000000000E+00 -0.00000000000E+00  0.11368683772E-12  0.17120000000E+03  0.17120000000E+03 0.  0.
         13    1    1    2    0    0  0.71195430989E+01 -0.17427791219E+02  0.79676542281E+02  0.81870497462E+02  0.10566000000E+00 0.  1.
        994    1    1    2    0    0 -0.34998073012E+01  0.19766570593E+02  0.34430455578E+01  0.17240725196E+03  0.17120000000E+03 0.  0.
        998    1    1    2    0    0 -0.36197357976E+01 -0.23387793737E+01  0.14168804084E+04  0.14169222506E+04  0.10000000000E+02 0.  1.
</event>
<event>
 5    1  0.9130022E-009  0.3807356E+03  0.7957747E-01  0.3447962E+00
         13   -1    0    0    0    0  0.00000000000E+00  0.00000000000E+00  0.14999999963E+04  0.15000000000E+04  0.10566000000E+00 0.  1.
        994   -1    0    0    0    0 -0.00000000000E+00 -0.00000000000E+00  0.11368683772E-12  0.17120000000E+03  0.17120000000E+03 0.  0.
         13    1    1    2    0    0  0.26053246204E+02  0.45502378379E+02  0.26208184675E+03  0.26727540784E+03  0.10566000000E+00 0.  1.
        994    1    1    2    0    0 -0.22013054213E+02 -0.66740578649E+02  0.20411836584E+02  0.18618529068E+03  0.17120000000E+03 0.  0.
        998    1    1    2    0    0 -0.40401919911E+01  0.21238200270E+02  0.12175063129E+04  0.12177393015E+04  0.10000000000E+02 0. -1.
</event>
<event>
 5    1  0.9130022E-009  0.3761350E+03  0.7957747E-01  0.3468162E+00
         13   -1    0    0    0    0  0.00000000000E+00  0.00000000000E+00  0.14999999963E+04  0.15000000000E+04  0.10566000000E+00 0. -1.
        994   -1    0    0    0    0 -0.00000000000E+00 -0.00000000000E+00  0.11368683772E-12  0.17120000000E+03  0.17120000000E+03 0.  0.
         13    1    1    2    0    0 -0.28269538262E+02  0.57071702318E+02  0.18994340280E+03  0.20033684991E+03  0.10566000000E+00 0. -1.
        994    1    1    2    0    0 -0.12203979025E+00  0.36285418405E+02  0.18939099790E+02  0.17602493001E+03  0.17120000000E+03 0.  0.
        998    1    1    2    0    0  0.28391578053E+02 -0.93357120723E+02  0.12911174937E+04  0.12948382201E+04  0.10000000000E+02 0. -1.
</event>
<event>
 5    1  0.9130022E-009  0.3855470E+03  0.7957747E-01  0.3427355E+00
         13   -1    0    0    0    0  0.00000000000E+00  0.00000000000E+00  0.14999999963E+04  0.15000000000E+04  0.10566000000E+00 0.  1.
        994   -1    0    0    0    0 -0.00000000000E+00 -0.00000000000E+00  0.11368683772E-12  0.17120000000E+03  0.17120000000E+03 0.  0.
         13    1    1    2    0    0  0.91616115528E+01  0.89403158157E+01  0.58299160876E+02  0.59688086718E+02  0.10566000000E+00 0.  1.
        994    1    1    2    0    0 -0.13918196999E+02 -0.66310603814E+01  0.21394566865E+01  0.17190609194E+03  0.17120000000E+03 0.  0.
        998    1    1    2    0    0  0.47565854465E+01 -0.23092554343E+01  0.14395613787E+04  0.14396058213E+04  0.10000000000E+02 0.  1.
</event>
<event>
 5    1  0.9130022E-009  0.3845876E+03  0.7957747E-01  0.3431423E+00
         13   -1    0    0    0    0  0.00000000000E+00  0.00000000000E+00  0.14999999963E+04  0.15000000000E+04  0.10566000000E+00 0. -1.
        994   -1    0    0    0    0 -0.00000000000E+00 -0.00000000000E+00  0.11368683772E-12  0.17120000000E+03  0.17120000000E+03 0.  0.
         13    1    1    2    0    0 -0.12645392173E+02  0.22127660651E+01  0.44299756528E+02  0.46122465994E+02  0.10566000000E+00 0. -1.
        994    1    1    2    0    0  0.96428929094E+01 -0.35614156046E+01  0.21830596745E+01  0.17152222834E+03  0.17120000000E+03 0.  0.
        998    1    1    2    0    0  0.30024992638E+01  0.13486495394E+01  0.14535171801E+04  0.14535553057E+04  0.10000000000E+02 0.  0.
</event>
<event>
 5    1  0.9130022E-009  0.3787374E+03  0.7957747E-01  0.3456675E+00
         13   -1    0    0    0    0  0.00000000000E+00  0.00000000000E+00  0.14999999963E+04  0.15000000000E+04  0.10566000000E+00 0.  1.
        994   -1    0    0    0    0 -0.00000000000E+00 -0.00000000000E+00  0.11368683772E-12  0.17120000000E+03  0.17120000000E+03 0.  0.
         13    1    1    2    0    0 -0.86988466377E+01  0.29327182721E+02  0.74044791080E+02  0.80114891433E+02  0.10566000000E+00 0.  1.
        994    1    1    2    0    0  0.26782254142E+02 -0.77486354456E+02  0.27676902892E+02  0.19182511623E+03  0.17120000000E+03 0.  0.
        998    1    1    2    0    0 -0.18083407504E+02  0.48159171735E+02  0.13982783023E+04  0.13992599923E+04  0.10000000000E+02 0.  1.
</event>
<event>
 5    1  0.9130022E-009  0.3853230E+03  0.7957747E-01  0.3428304E+00
         13   -1    0    0    0    0  0.00000000000E+00  0.00000000000E+00  0.14999999963E+04  0.15000000000E+04  0.10566000000E+00 0.  1.
        994   -1    0    0    0    0 -0.00000000000E+00 -0.00000000000E+00  0.11368683772E-12  0.17120000000E+03  0.17120000000E+03 0.  0.
         13    1    1    2    0    0  0.16654071708E+02  0.46448285322E+01  0.99842492460E+02  0.10132851031E+03  0.10566000000E+00 0.  1.
        994    1    1    2    0    0 -0.15107231456E+02  0.29695167140E+01  0.22490006439E+01  0.17190562666E+03  0.17120000000E+03 0.  0.
        998    1    1    2    0    0 -0.15468402522E+01 -0.76143452461E+01  0.13979085032E+04  0.13979658630E+04  0.10000000000E+02 0.  1.
</event>
<event>
 5    1  0.9130022E-009  0.3821931E+03  0.7957747E-01  0.3441664E+00
         13   -1    0    0    0    0  0.00000000000E+00  0.00000000000E+00  0.14999999963E+04  0.15000000000E+04  0.10566000000E+00 0. -1.
        994   -1    0    0    0    0 -0.00000000000E+00 -0.00000000000E+00  0.11368683772E-12  0.17120000000E+03  0.17120000000E+03 0.  0.
         13    1    1    2    0    0 -0.12925231545E+02 -0.23509579714E+02  0.13915498958E+03  0.14171762148E+03  0.10566000000E+00 0. -1.
        994    1    1    2    0    0  0.28039934019E+01 -0.94027407398E+01  0.33497444455E+01  0.17151365747E+03  0.17120000000E+03 0.  0.
        998    1    1    2    0    0  0.10121238143E+02  0.32912320453E+02  0.13574952623E+04  0.13579687210E+04  0.10000000000E+02 0. -1.
</event>
<event>
 5    1  0.9130022E-009  0.3827809E+03  0.7957747E-01  0.3439139E+00
         13   -1    0    0    0    0  0.00000000000E+00  0.00000000000E+00  0.14999999963E+04  0.15000000000E+04  0.10566000000E+00 0.  1.
        994   -1    0    0    0    0 -0.00000000000E+00 -0.00000000000E+00  0.11368683772E-12  0.17120000000E+03  0.17120000000E+03 0.  0.
         13    1    1    2    0    0 -0.13447500275E+02 -0.31666720504E+02  0.20519880438E+03  0.20806291581E+03  0.10566000000E+00 0.  1.
        994    1    1    2    0    0 -0.12488601506E+02  0.34267805109E+02  0.71548621740E+01  0.17518812656E+03  0.17120000000E+03 0.  0.
        998    1    1    2    0    0  0.25936101781E+02 -0.26010846051E+01  0.12876463297E+04  0.12879489576E+04  0.10000000000E+02 0.  1.
</event>
<event>
 5    1  0.9130022E-009  0.3843855E+03  0.7957747E-01  0.3432282E+00
         13   -1    0    0    0    0  0.00000000000E+00  0.00000000000E+00  0.14999999963E+04  0.15000000000E+04  0.10566000000E+00 0. -1.
        994   -1    0    0    0    0 -0.00000000000E+00 -0.00000000000E+00  0.11368683772E-12  0.17120000000E+03  0.17120000000E+03 0.  0.
         13    1    1    2    0    0  0.86203645617E+01 -0.11026892292E+02  0.54946980320E+02  0.56701718220E+02  0.10566000000E+00 0. -1.
        994    1    1    2    0    0  0.17919309507E+02  0.56250710226E+01  0.30987350966E+01  0.17225500061E+03  0.17120000000E+03 0.  0.
        998    1    1    2    0    0 -0.26539674069E+02  0.54018212689E+01  0.14419542809E+04  0.14422432812E+04  0.10000000000E+02 0. -1.
</event>
<event>
 5    1  0.9130022E-009  0.3716727E+03  0.7957747E-01  0.3488239E+00
         13   -1    0    0    0    0  0.00000000000E+00  0.00000000000E+00  0.14999999963E+04  0.15000000000E+04  0.10566000000E+00 0. -1.
        994   -1    0    0    0    0 -0.00000000000E+00 -0.00000000000E+00  0.11368683772E-12  0.17120000000E+03  0.17120000000E+03 0.  0.
         13    1    1    2    0    0  0.11200251471E+02  0.70540751144E+01  0.20901353598E+01  0.13400949167E+02  0.10566000000E+00 0. -1.
        994    1    1    2    0    0  0.13982223319E+02 -0.16740839093E+02  0.13500830811E+02  0.17311115127E+03  0.17120000000E+03 0.  0.
        998    1    1    2    0    0 -0.25182474790E+02  0.96867639791E+01  0.14844090301E+04  0.14846878996E+04  0.10000000000E+02 0. -1.
</event>
<event>
 5    1  0.9130022E-009  0.3808372E+03  0.7957747E-01  0.3447521E+00
         13   -1    0    0    0    0  0.00000000000E+00  0.00000000000E+00  0.14999999963E+04  0.15000000000E+04  0.10566000000E+00 0.  1.
        994   -1    0    0    0    0 -0.00000000000E+00 -0.00000000000E+00  0.11368683772E-12  0.17120000000E+03  0.17120000000E+03 0.  0.
         13    1    1    2    0    0  0.69864596469E+01 -0.34034225741E+02  0.15873229080E+03  0.16249027801E+03  0.10566000000E+00 0.  1.
        994    1    1    2    0    0 -0.68128242923E+01  0.21891170111E+02  0.54653960029E+01  0.17281478078E+03  0.17120000000E+03 0.  0.
        998    1    1    2    0    0 -0.17363535462E+00  0.12143055630E+02  0.13358023095E+04  0.13358949412E+04  0.10000000000E+02 0.  1.
</event>
<event>
 5    1  0.9130022E-009  0.3752240E+03  0.7957747E-01  0.3472221E+00
         13   -1    0    0    0    0  0.00000000000E+00  0.00000000000E+00  0.14999999963E+04  0.15000000000E+04  0.10566000000E+00 0.  1.
        994   -1    0    0    0    0 -0.00000000000E+00 -0.00000000000E+00  0.11368683772E-12  0.17120000000E+03  0.17120000000E+03 0.  0.
         13    1    1    2    0    0  0.16466684243E+02 -0.17354532154E+02  0.39466629363E+02  0.46151462312E+02  0.10566000000E+00 0.  1.
        994    1    1    2    0    0 -0.31457467697E+02  0.97873250190E+01  0.10259165686E+02  0.17464264796E+03  0.17120000000E+03 0.  0.
        998    1    1    2    0    0  0.14990783453E+02  0.75672071351E+01  0.14502742012E+04  0.14504058897E+04  0.10000000000E+02 0.  1.
</event>
<event>
 5    1  0.9130022E-009  0.3813116E+03  0.7957747E-01  0.3445467E+00
         13   -1    0    0    0    0  0.00000000000E+00  0.00000000000E+00  0.14999999963E+04  0.15000000000E+04  0.10566000000E+00 0.  1.
        994   -1    0    0    0    0 -0.00000000000E+00 -0.00000000000E+00  0.11368683772E-12  0.17120000000E+03  0.17120000000E+03 0.  0.
         13    1    1    2    0    0  0.33435966770E+02  0.13891476966E+01  0.17458252311E+03  0.17776096913E+03  0.10566000000E+00 0.  1.
        994    1    1    2    0    0 -0.81013960661E+01 -0.99813269095E-01  0.36910198430E+01  0.17143134547E+03  0.17120000000E+03 0.  0.
        998    1    1    2    0    0 -0.25334570704E+02 -0.12893344275E+01  0.13217264533E+04  0.13220076854E+04  0.10000000000E+02 0.  1.
</event>
<event>
 5    1  0.9130022E-009  0.3830607E+03  0.7957747E-01  0.3437939E+00
         13   -1    0    0    0    0  0.00000000000E+00  0.00000000000E+00  0.14999999963E+04  0.15000000000E+04  0.10566000000E+00 0.  1.
        994   -1    0    0    0    0 -0.00000000000E+00 -0.00000000000E+00  0.11368683772E-12  0.17120000000E+03  0.17120000000E+03 0.  0.
         13    1    1    2    0    0  0.62416051698E+01  0.13872684549E+02  0.44326263916E+02  0.46864035768E+02  0.10566000000E+00 0.  1.
        994    1    1    2    0    0 -0.12030804382E+02 -0.25710963444E+01  0.30970881227E+01  0.17166939956E+03  0.17120000000E+03 0.  0.
        998    1    1    2    0    0  0.57891992119E+01 -0.11301588205E+02  0.14525766442E+04  0.14526665647E+04  0.10000000000E+02 0.  1.
</event>
<event>
 5    1  0.9130022E-009  0.3833445E+03  0.7957747E-01  0.3436724E+00
         13   -1    0    0    0    0  0.00000000000E+00  0.00000000000E+00  0.14999999963E+04  0.15000000000E+04  0.10566000000E+00 0.  1.
        994   -1    0    0    0    0 -0.00000000000E+00 -0.00000000000E+00  0.11368683772E-12  0.17120000000E+03  0.17120000000E+03 0.  0.
         13    1    1    2    0    0 -0.20687373812E+02  0.91551901642E+01  0.10036343134E+03  0.10288155547E+03  0.10566000000E+00 0.  1.
        994    1    1    2    0    0  0.12583706298E+02 -0.18898882353E+02  0.41606423229E+01  0.17274914866E+03  0.17120000000E+03 0.  0.
        998    1    1    2    0    0  0.81036675140E+01  0.97436921884E+01  0.13954759226E+04  0.13955692959E+04  0.10000000000E+02 0.  1.
</event>
<event>
 5    1  0.9130022E-009  0.3824622E+03  0.7957747E-01  0.3440507E+00
         13   -1    0    0    0    0  0.00000000000E+00  0.00000000000E+00  0.14999999963E+04  0.15000000000E+04  0.10566000000E+00 0. -1.
        994   -1    0    0    0    0 -0.00000000000E+00 -0.00000000000E+00  0.11368683772E-12  0.17120000000E+03  0.17120000000E+03 0.  0.
         13    1    1    2    0    0  0.13535343526E+02  0.12359096914E+02  0.58652966659E+02  0.61450260072E+02  0.10566000000E+00 0. -1.
        994    1    1    2    0    0 -0.26124060931E+01 -0.62521150247E+01  0.30476355568E+01  0.17136114405E+03  0.17120000000E+03 0.  0.
        998    1    1    2    0    0 -0.10922937433E+02 -0.61069818895E+01  0.14382993941E+04  0.14383885959E+04  0.10000000000E+02 0. -1.
</event>
<event>
 5    1  0.9130022E-009  0.3851984E+03  0.7957747E-01  0.3428831E+00
         13   -1    0    0    0    0  0.00000000000E+00  0.00000000000E+00  0.14999999963E+04  0.15000000000E+04  0.10566000000E+00 0. -1.
        994   -1    0    0    0    0 -0.00000000000E+00 -0.00000000000E+00  0.11368683772E-12  0.17120000000E+03  0.17120000000E+03 0.  0.
         13    1    1    2    0    0  0.89290092397E+00 -0.19309454475E+02  0.11501996724E+03  0.11663299847E+03  0.10566000000E+00 0. -1.
        994    1    1    2    0    0  0.23542538280E+01  0.19361233168E+02  0.27828870710E+01  0.17232987066E+03  0.17120000000E+03 0.  0.
        998    1    1    2    0    0 -0.32471547519E+01 -0.51778693692E-01  0.13821971420E+04  0.13822371309E+04  0.10000000000E+02 0. -1.
</event>
<event>
 5    1  0.9130022E-009  0.3827119E+03  0.7957747E-01  0.3439434E+00
         13   -1    0    0    0    0  0.00000000000E+00  0.00000000000E+00  0.14999999963E+04  0.15000000000E+04  0.10566000000E+00 0.  1.
        994   -1    0    0    0    0 -0.00000000000E+00 -0.00000000000E+00  0.11368683772E-12  0.17120000000E+03  0.17120000000E+03 0.  0.
         13    1    1    2    0    0  0.13355208340E+02  0.57797934875E+01  0.37821929946E+02  0.40525018833E+02  0.10566000000E+00 0.  1.
        994    1    1    2    0    0 -0.51631086704E+01 -0.37366713669E+01  0.29049934239E+01  0.17134322102E+03  0.17120000000E+03 0.  0.
        998    1    1    2    0    0 -0.81920996695E+01 -0.20431221206E+01  0.14592730729E+04  0.14593317601E+04  0.10000000000E+02 0.  1.
</event>
<event>
 5    1  0.9130022E-009  0.3811176E+03  0.7957747E-01  0.3446307E+00
         13   -1    0    0    0    0  0.00000000000E+00  0.00000000000E+00  0.14999999963E+04  0.15000000000E+04  0.10566000000E+00 0.  1.
        994   -1    0    0    0    0 -0.00000000000E+00 -0.00000000000E+00  0.11368683772E-12  0.17120000000E+03  0.17120000000E+03 0.  0.
         13    1    1    2    0    0 -0.13995744003E+02  0.52145585027E+01  0.29009644327E+02  0.32628869098E+02  0.10566000000E+00 0.  1.
        994    1    1    2    0    0  0.20992065647E+02  0.11336240733E+01  0.50434032502E+01  0.17255963560E+03  0.17120000000E+03 0.  0.
        998    1    1    2    0    0 -0.69963216441E+01 -0.63481825760E+01  0.14659469487E+04  0.14660114953E+04  0.10000000000E+02 0.  1.
</event>
<event>
 5    1  0.9130022E-009  0.3786400E+03  0.7957747E-01  0.3457102E+00
         13   -1    0    0    0    0  0.00000000000E+00  0.00000000000E+00  0.14999999963E+04  0.15000000000E+04  0.10566000000E+00 0.  1.
        994   -1    0    0    0    0 -0.00000000000E+00 -0.00000000000E+00  0.11368683772E-12  0.17120000000E+03  0.17120000000E+03 0.  0.
         13    1    1    2    0    0  0.38393807152E+01 -0.22599896190E+02  0.51908520135E+02  0.56745059510E+02  0.10566000000E+00 0.  1.
        994    1    1    2    0    0 -0.11912979395E+02  0.17189418781E+02  0.62913870079E+01  0.17258741769E+03  0.17120000000E+03 0.  0.
        998    1    1    2    0    0  0.80735986802E+01  0.54104774094E+01  0.14418000891E+04  0.14418675228E+04  0.10000000000E+02 0.  1.
</event>
<event>
 5    1  0.9130022E-009  0.3792513E+03  0.7957747E-01  0.3454425E+00
         13   -1    0    0    0    0  0.00000000000E+00  0.00000000000E+00  0.14999999963E+04  0.15000000000E+04  0.10566000000E+00 0. -1.
        994   -1    0    0    0    0 -0.00000000000E+00 -0.00000000000E+00  0.11368683772E-12  0.17120000000E+03  0.17120000000E+03 0.  0.
         13    1    1    2    0    0  0.15942639803E+01 -0.25556141051E+02  0.73174500760E+02  0.77525329723E+02  0.10566000000E+00 0. -1.
        994    1    1    2    0    0  0.19629760151E+01  0.93104835571E+01  0.48150419612E+01  0.17153181340E+03  0.17120000000E+03 0.  0.
        998    1    1    2    0    0 -0.35572399954E+01  0.16245657494E+02  0.14220104536E+04  0.14221428569E+04  0.10000000000E+02 0. -1.
</event>
<event>
 5    1  0.9130022E-009  0.3715145E+03  0.7957747E-01  0.3488960E+00
         13   -1    0    0    0    0  0.00000000000E+00  0.00000000000E+00  0.14999999963E+04  0.15000000000E+04  0.10566000000E+00 0.  1.
        994   -1    0    0    0    0 -0.00000000000E+00 -0.00000000000E+00  0.11368683772E-12  0.17120000000E+03  0.17120000000E+03 0.  0.
         13    1    1    2    0    0  0.10405809384E+02  0.61509452081E+01  0.46692514538E+01  0.12958706304E+02  0.10566000000E+00 0.  1.
        994    1    1    2    0    0 -0.12023002612E+02 -0.38071536375E+01  0.90268701539E+01  0.17190105118E+03  0.17120000000E+03 0.  0.
        998    1    1    2    0    0  0.16171932273E+01 -0.23437915705E+01  0.14863038747E+04  0.14863402425E+04  0.10000000000E+02 0.  1.
</event>
<event>
 5    1  0.9130022E-009  0.3782974E+03  0.7957747E-01  0.3458606E+00
         13   -1    0    0    0    0  0.00000000000E+00  0.00000000000E+00  0.14999999963E+04  0.15000000000E+04  0.10566000000E+00 0. -1.
        994   -1    0    0    0    0 -0.00000000000E+00 -0.00000000000E+00  0.11368683772E-12  0.17120000000E+03  0.17120000000E+03 0.  0.
         13    1    1    2    0    0  0.63037127336E+01  0.18719701710E+02  0.37169561098E+02  0.42092178164E+02  0.10566000000E+00 0. -1.
        994    1    1    2    0    0 -0.69764058099E+01 -0.10754058950E+02  0.55476958645E+01  0.17176884744E+03  0.17120000000E+03 0.  0.
        998    1    1    2    0    0  0.67269307633E+00 -0.79656427601E+01  0.14572827393E+04  0.14573389744E+04  0.10000000000E+02 0. -1.
</event>
<event>
 5    1  0.9130022E-009  0.3710099E+03  0.7957747E-01  0.3491262E+00
         13   -1    0    0    0    0  0.00000000000E+00  0.00000000000E+00  0.14999999963E+04  0.15000000000E+04  0.10566000000E+00 0. -1.
        994   -1    0    0    0    0 -0.00000000000E+00 -0.00000000000E+00  0.11368683772E-12  0.17120000000E+03  0.17120000000E+03 0.  0.
         13    1    1    2    0    0  0.51700386079E+02 -0.25454809072E+02  0.27690600505E+03  0.28283886583E+03  0.10566000000E+00 0. -1.
        994    1    1    2    0    0  0.16374664380E+02 -0.20861739758E+02  0.11169433802E+02  0.17360166494E+03  0.17120000000E+03 0.  0.
        998    1    1    2    0    0 -0.68075050459E+02  0.46316548830E+02  0.12119245574E+04  0.12147594692E+04  0.10000000000E+02 0. -1.
</event>
<event>
 5    1  0.9130022E-009  0.3729479E+03  0.7957747E-01  0.3482451E+00
         13   -1    0    0    0    0  0.00000000000E+00  0.00000000000E+00  0.14999999963E+04  0.15000000000E+04  0.10566000000E+00 0. -1.
        994   -1    0    0    0    0 -0.00000000000E+00 -0.00000000000E+00  0.11368683772E-12  0.17120000000E+03  0.17120000000E+03 0.  0.
         13    1    1    2    0    0  0.17036470228E+01 -0.52331264398E+02  0.15254653529E+03  0.16128211383E+03  0.10566000000E+00 0. -1.
        994    1    1    2    0    0 -0.72033231580E+01  0.58754843276E+02  0.19826846645E+02  0.18222668114E+03  0.17120000000E+03 0.  0.
        998    1    1    2    0    0  0.54996761352E+01 -0.64235788780E+01  0.13276266143E+04  0.13276912050E+04  0.10000000000E+02 0. -1.
</event>
<event>
 5    1  0.9130022E-009  0.3828394E+03  0.7957747E-01  0.3438888E+00
         13   -1    0    0    0    0  0.00000000000E+00  0.00000000000E+00  0.14999999963E+04  0.15000000000E+04  0.10566000000E+00 0.  1.
        994   -1    0    0    0    0 -0.00000000000E+00 -0.00000000000E+00  0.11368683772E-12  0.17120000000E+03  0.17120000000E+03 0.  0.
         13    1    1    2    0    0 -0.23195044266E+02 -0.22049143546E+02  0.18575258038E+03  0.18848927580E+03  0.10566000000E+00 0.  1.
        994    1    1    2    0    0  0.27126940360E+02  0.18572820218E+01  0.51590352434E+01  0.17342253612E+03  0.17120000000E+03 0.  0.
        998    1    1    2    0    0 -0.39318960946E+01  0.20191861524E+02  0.13090883807E+04  0.13092881881E+04  0.10000000000E+02 0.  1.
</event>
<event>
 5    1  0.9130022E-009  0.4241232E+03  0.7957747E-01  0.3278996E+00
         13   -1    0    0    0    0  0.00000000000E+00  0.00000000000E+00  0.14999999963E+04  0.15000000000E+04  0.10566000000E+00 0.  1.
        994   -1    0    0    0    0 -0.00000000000E+00 -0.00000000000E+00  0.11368683772E-12  0.17120000000E+03  0.17120000000E+03 0.  0.
         13    1    1    2    0    0 -0.38797001716E+02 -0.13655677491E+03  0.37744879245E+03  0.40326239869E+03  0.10566000000E+00 0.  1.
        994    1    1    2    0    0  0.61051365212E+02 -0.35529146319E+02  0.65116385082E+02  0.19631396547E+03  0.17120000000E+03 0.  0.
        998    1    1    2    0    0 -0.22254363496E+02  0.17208592123E+03  0.10574348188E+04  0.10716236358E+04  0.10000000000E+02 0.  1.
</event>
<event>
 5    1  0.9130022E-009  0.3838698E+03  0.7957747E-01  0.3434480E+00
         13   -1    0    0    0    0  0.00000000000E+00  0.00000000000E+00  0.14999999963E+04  0.15000000000E+04  0.10566000000E+00 0.  1.
        994   -1    0    0    0    0 -0.00000000000E+00 -0.00000000000E+00  0.11368683772E-12  0.17120000000E+03  0.17120000000E+03 0.  0.
         13    1    1    2    0    0 -0.30938011057E+01  0.10885234286E+02  0.28573010549E+02  0.30732523922E+02  0.10566000000E+00 0.  1.
        994    1    1    2    0    0 -0.72987076255E+01 -0.10062862591E+02  0.27025509067E+01  0.17167200156E+03  0.17120000000E+03 0.  0.
        998    1    1    2    0    0  0.10392508731E+02 -0.82237169569E+00  0.14687244348E+04  0.14687954745E+04  0.10000000000E+02 0.  1.
</event>
<event>
 5    1  0.9130022E-009  0.3751841E+03  0.7957747E-01  0.3472400E+00
         13   -1    0    0    0    0  0.00000000000E+00  0.00000000000E+00  0.14999999963E+04  0.15000000000E+04  0.10566000000E+00 0. -1.
        994   -1    0    0    0    0 -0.00000000000E+00 -0.00000000000E+00  0.11368683772E-12  0.17120000000E+03  0.17120000000E+03 0.  0.
         13    1    1    2    0    0 -0.52253837543E+01  0.42890234145E+02  0.15739683421E+03  0.16321964160E+03  0.10566000000E+00 0. -1.
        994    1    1    2    0    0 -0.39328463691E+01 -0.36529064756E+01  0.66821009727E+01  0.17141441445E+03  0.17120000000E+03 0.  0.
        998    1    1    2    0    0  0.91582301233E+01 -0.39237327670E+02  0.13359210611E+04  0.13365659440E+04  0.10000000000E+02 0. -1.
</event>
<event>
 5    1  0.9130022E-009  0.3826080E+03  0.7957747E-01  0.3439881E+00
         13   -1    0    0    0    0  0.00000000000E+00  0.00000000000E+00  0.14999999963E+04  0.15000000000E+04  0.10566000000E+00 0. -1.
        994   -1    0    0    0    0 -0.00000000000E+00 -0.00000000000E+00  0.11368683772E-12  0.17120000000E+03  0.17120000000E+03 0.  0.
         13    1    1    2    0    0  0.10774984502E+02 -0.17753581959E+02  0.77506070061E+02  0.80240214504E+02  0.10566000000E+00 0. -1.
        994    1    1    2    0    0 -0.49750336837E+00  0.95559202231E+01  0.31259451860E+01  0.17149569865E+03  0.17120000000E+03 0.  0.
        998    1    1    2    0    0 -0.10277481134E+02  0.81976617356E+01  0.14193679810E+04  0.14194640868E+04  0.10000000000E+02 0. -1.
</event>
<event>
 5    1  0.9130022E-009  0.3854436E+03  0.7957747E-01  0.3427793E+00
         13   -1    0    0    0    0  0.00000000000E+00  0.00000000000E+00  0.14999999963E+04  0.15000000000E+04  0.10566000000E+00 0.  1.
        994   -1    0    0    0    0 -0.00000000000E+00 -0.00000000000E+00  0.11368683772E-12  0.17120000000E+03  0.17120000000E+03 0.  0.
         13    1    1    2    0    0  0.84420451709E+01 -0.70389761500E+01  0.43095096685E+02  0.44474867445E+02  0.10566000000E+00 0.  1.
        994    1    1    2    0    0 -0.10574670603E+02 -0.18887857564E+01  0.17890832709E+01  0.17154600546E+03  0.17120000000E+03 0.  0.
        998    1    1    2    0    0  0.21326254323E+01  0.89277619065E+01  0.14551158163E+04  0.14551791271E+04  0.10000000000E+02 0.  1.
</event>
<event>
 5    1  0.9130022E-009  0.4042566E+03  0.7957747E-01  0.3351894E+00
         13   -1    0    0    0    0  0.00000000000E+00  0.00000000000E+00  0.14999999963E+04  0.15000000000E+04  0.10566000000E+00 0.  1.
        994   -1    0    0    0    0 -0.00000000000E+00 -0.00000000000E+00  0.11368683772E-12  0.17120000000E+03  0.17120000000E+03 0.  0.
         13    1    1    2    0    0  0.48818086942E+02  0.13025327826E+02  0.28708737611E+02  0.58112542165E+02  0.10566000000E+00 0.  1.
        994    1    1    2    0    0 -0.52709431642E+02 -0.53515437231E+02  0.53197095516E+02  0.19437478534E+03  0.17120000000E+03 0.  0.
        998    1    1    2    0    0  0.38913447004E+01  0.40490109405E+02  0.14180941632E+04  0.14187126725E+04  0.10000000000E+02 0.  1.
</event>
<event>
 5    1  0.9130022E-009  0.3831078E+03  0.7957747E-01  0.3437737E+00
         13   -1    0    0    0    0  0.00000000000E+00  0.00000000000E+00  0.14999999963E+04  0.15000000000E+04  0.10566000000E+00 0.  1.
        994   -1    0    0    0    0 -0.00000000000E+00 -0.00000000000E+00  0.11368683772E-12  0.17120000000E+03  0.17120000000E+03 0.  0.
         13    1    1    2    0    0  0.53623370045E+01  0.19349458192E+02  0.76788788059E+02  0.79370557047E+02  0.10566000000E+00 0.  1.
        994    1    1    2    0    0  0.12330624551E+02 -0.19006572514E+02  0.42727961035E+01  0.17274545113E+03  0.17120000000E+03 0.  0.
        998    1    1    2    0    0 -0.17692961556E+02 -0.34288567774E+00  0.14189384121E+04  0.14190839918E+04  0.10000000000E+02 0.  1.
</event>
<event>
 5    1  0.9130022E-009  0.3787437E+03  0.7957747E-01  0.3456647E+00
         13   -1    0    0    0    0  0.00000000000E+00  0.00000000000E+00  0.14999999963E+04  0.15000000000E+04  0.10566000000E+00 0.  1.
        994   -1    0    0    0    0 -0.00000000000E+00 -0.00000000000E+00  0.11368683772E-12  0.17120000000E+03  0.17120000000E+03 0.  0.
         13    1    1    2    0    0 -0.40864451087E+02 -0.11986174976E+02  0.22819983196E+03  0.23213949733E+03  0.10566000000E+00 0.  1.
        994    1    1    2    0    0  0.10284923448E+02 -0.30207106983E+02  0.81943465651E+01  0.17434114913E+03  0.17120000000E+03 0.  0.
        998    1    1    2    0    0  0.30579527639E+02  0.42193281959E+02  0.12636058178E+04  0.12647193535E+04  0.10000000000E+02 0.  1.
</event>
<event>
 5    1  0.9130022E-009  0.3777240E+03  0.7957747E-01  0.3461129E+00
         13   -1    0    0    0    0  0.00000000000E+00  0.00000000000E+00  0.14999999963E+04  0.15000000000E+04  0.10566000000E+00 0. -1.
        994   -1    0    0    0    0 -0.00000000000E+00 -0.00000000000E+00  0.11368683772E-12  0.17120000000E+03  0.17120000000E+03 0.  0.
         13    1    1    2    0    0  0.72479951404E+02  0.11283974920E+02  0.37002312387E+03  0.37722379936E+03  0.10566000000E+00 0. -1.
        994    1    1    2    0    0 -0.74147507072E+02 -0.22399962621E+02  0.25768882304E+02  0.18966572285E+03  0.17120000000E+03 0.  0.
        998    1    1    2    0    0  0.16675556672E+01  0.11115987701E+02  0.11042079901E+04  0.11043104778E+04  0.10000000000E+02 0. -1.
</event>
<event>
 5    1  0.9130022E-009  0.3852691E+03  0.7957747E-01  0.3428532E+00
         13   -1    0    0    0    0  0.00000000000E+00  0.00000000000E+00  0.14999999963E+04  0.15000000000E+04  0.10566000000E+00 0.  1.
        994   -1    0    0    0    0 -0.00000000000E+00 -0.00000000000E+00  0.11368683772E-12  0.17120000000E+03  0.17120000000E+03 0.  0.
         13    1    1    2    0    0  0.13365409767E+02 -0.20028576201E+01  0.59320628052E+02  0.60840723972E+02  0.10566000000E+00 0.  1.
        994    1    1    2    0    0 -0.13199656005E+02  0.56577606709E+01  0.21745480691E+01  0.17181504542E+03  0.17120000000E+03 0.  0.
        998    1    1    2    0    0 -0.16575376243E+00 -0.36549030508E+01  0.14385048202E+04  0.14385442306E+04  0.10000000000E+02 0.  1.
</event>
<event>
 5    1  0.9130022E-009  0.3779381E+03  0.7957747E-01  0.3460186E+00
         13   -1    0    0    0    0  0.00000000000E+00  0.00000000000E+00  0.14999999963E+04  0.15000000000E+04  0.10566000000E+00 0.  1.
        994   -1    0    0    0    0 -0.00000000000E+00 -0.00000000000E+00  0.11368683772E-12  0.17120000000E+03  0.17120000000E+03 0.  0.
         13    1    1    2    0    0  0.24694382350E+02 -0.46124720928E+01  0.62145616250E+02  0.67031158438E+02  0.10566000000E+00 0.  1.
        994    1    1    2    0    0 -0.13118050483E+02 -0.53055344697E+02  0.15298034115E+02  0.18036192142E+03  0.17120000000E+03 0.  0.
        998    1    1    2    0    0 -0.11576331868E+02  0.57667816789E+02  0.14225563459E+04  0.14238069201E+04  0.10000000000E+02 0.  1.
</event>
<event>
 5    1  0.9130022E-009  0.3747344E+03  0.7957747E-01  0.3474411E+00
         13   -1    0    0    0    0  0.00000000000E+00  0.00000000000E+00  0.14999999963E+04  0.15000000000E+04  0.10566000000E+00 0.  1.
        994   -1    0    0    0    0 -0.00000000000E+00 -0.00000000000E+00  0.11368683772E-12  0.17120000000E+03  0.17120000000E+03 0.  0.
         13    1    1    2    0    0 -0.15285749579E+03  0.77998164969E+02  0.66817854672E+03  0.68986354391E+03  0.10566000000E+00 0.  1.
        994    1    1    2    0    0  0.17502641364E+03 -0.10074518884E+03  0.16136074305E+03  0.31004929921E+03  0.17120000000E+03 0.  0.
        998    1    1    2    0    0 -0.22168917851E+02  0.22747023867E+02  0.67046070651E+03  0.67128715688E+03  0.10000000000E+02 0.  1.
</event>
<event>
 5    1  0.9130022E-009  0.3744602E+03  0.7957747E-01  0.3475641E+00
         13   -1    0    0    0    0  0.00000000000E+00  0.00000000000E+00  0.14999999963E+04  0.15000000000E+04  0.10566000000E+00 0. -1.
        994   -1    0    0    0    0 -0.00000000000E+00 -0.00000000000E+00  0.11368683772E-12  0.17120000000E+03  0.17120000000E+03 0.  0.
         13    1    1    2    0    0 -0.63893031219E+01  0.10831413236E+02  0.83153221094E+01  0.15076420427E+02  0.10566000000E+00 0. -1.
        994    1    1    2    0    0  0.15446568037E+01 -0.35974242632E+01  0.70084115895E+01  0.17138811295E+03  0.17120000000E+03 0.  0.
        998    1    1    2    0    0  0.48446463182E+01 -0.72339889727E+01  0.14846762626E+04  0.14847354666E+04  0.10000000000E+02 0. -1.
</event>
<event>
 5    1  0.9130022E-009  0.3792240E+03  0.7957747E-01  0.3454544E+00
         13   -1    0    0    0    0  0.00000000000E+00  0.00000000000E+00  0.14999999963E+04  0.15000000000E+04  0.10566000000E+00 0. -1.
        994   -1    0    0    0    0 -0.00000000000E+00 -0.00000000000E+00  0.11368683772E-12  0.17120000000E+03  0.17120000000E+03 0.  0.
         13    1    1    2    0    0  0.15818354226E+02 -0.13809820756E+02  0.45936692617E+02  0.50508636612E+02  0.10566000000E+00 0. -1.
        994    1    1    2    0    0 -0.12773712868E+02  0.16178636192E+02  0.59507832132E+01  0.17253917767E+03  0.17120000000E+03 0.  0.
        998    1    1    2    0    0 -0.30446413582E+01 -0.23688154355E+01  0.14481125204E+04  0.14481521857E+04  0.10000000000E+02 0. -1.
</event>
<event>
 5    1  0.9130022E-009  0.3797162E+03  0.7957747E-01  0.3452395E+00
         13   -1    0    0    0    0  0.00000000000E+00  0.00000000000E+00  0.14999999963E+04  0.15000000000E+04  0.10566000000E+00 0.  1.
        994   -1    0    0    0    0 -0.00000000000E+00 -0.00000000000E+00  0.11368683772E-12  0.17120000000E+03  0.17120000000E+03 0.  0.
         13    1    1    2    0    0 -0.42464977673E+02 -0.75726190144E+01  0.18357247406E+03  0.18857222299E+03  0.10566000000E+00 0.  1.
        994    1    1    2    0    0  0.49644093808E+02  0.12922994570E+01  0.12573088813E+02  0.17870010814E+03  0.17120000000E+03 0.  0.
        998    1    1    2    0    0 -0.71791161342E+01  0.62803195574E+01  0.13038544334E+04  0.13039276689E+04  0.10000000000E+02 0.  1.
</event>
<event>
 5    1  0.9130022E-009  0.3739712E+03  0.7957747E-01  0.3477837E+00
         13   -1    0    0    0    0  0.00000000000E+00  0.00000000000E+00  0.14999999963E+04  0.15000000000E+04  0.10566000000E+00 0.  1.
        994   -1    0    0    0    0 -0.00000000000E+00 -0.00000000000E+00  0.11368683772E-12  0.17120000000E+03  0.17120000000E+03 0.  0.
         13    1    1    2    0    0  0.10966127611E+03 -0.65279504464E+01  0.65544971932E+03  0.66459202172E+03  0.10566000000E+00 0.  1.
        994    1    1    2    0    0 -0.30901335829E+02  0.17432610014E+02  0.17530228776E+02  0.17571436301E+03  0.17120000000E+03 0.  0.
        998    1    1    2    0    0 -0.78759940281E+02 -0.10904659568E+02  0.82702004818E+03  0.83089361527E+03  0.10000000000E+02 0.  1.
</event>
<event>
 5    1  0.9130022E-009  0.3741965E+03  0.7957747E-01  0.3476824E+00
         13   -1    0    0    0    0  0.00000000000E+00  0.00000000000E+00  0.14999999963E+04  0.15000000000E+04  0.10566000000E+00 0. -1.
        994   -1    0    0    0    0 -0.00000000000E+00 -0.00000000000E+00  0.11368683772E-12  0.17120000000E+03  0.17120000000E+03 0.  0.
         13    1    1    2    0    0  0.18832193405E+02 -0.27240962163E+02  0.71908014668E+02  0.79167513953E+02  0.10566000000E+00 0. -1.
        994    1    1    2    0    0 -0.14859698033E+02  0.28200328162E+02  0.10562931399E+02  0.17446227287E+03  0.17120000000E+03 0.  0.
        998    1    1    2    0    0 -0.39724953721E+01 -0.95936599823E+00  0.14175290502E+04  0.14175702132E+04  0.10000000000E+02 0. -1.
</event>
<event>
 5    1  0.9130022E-009  0.3862973E+03  0.7957747E-01  0.3424189E+00
         13   -1    0    0    0    0  0.00000000000E+00  0.00000000000E+00  0.14999999963E+04  0.15000000000E+04  0.10566000000E+00 0.  1.
        994   -1    0    0    0    0 -0.00000000000E+00 -0.00000000000E+00  0.11368683772E-12  0.17120000000E+03  0.17120000000E+03 0.  0.
         13    1    1    2    0    0  0.96185040958E+01 -0.38820679271E+01  0.54613145951E+02  0.55589503930E+02  0.10566000000E+00 0.  1.
        994    1    1    2    0    0 -0.66349565992E+01  0.76503896663E+01  0.13233277269E+01  0.17150435070E+03  0.17120000000E+03 0.  0.
        998    1    1    2    0    0 -0.29835474966E+01 -0.37683217392E+01  0.14440635226E+04  0.14441061454E+04  0.10000000000E+02 0.  1.
</event>
<event>
 5    1  0.9130022E-009  0.3751681E+03  0.7957747E-01  0.3472471E+00
         13   -1    0    0    0    0  0.00000000000E+00  0.00000000000E+00  0.14999999963E+04  0.15000000000E+04  0.10566000000E+00 0.  1.
        994   -1    0    0    0    0 -0.00000000000E+00 -0.00000000000E+00  0.11368683772E-12  0.17120000000E+03  0.17120000000E+03 0.  0.
         13    1    1    2    0    0  0.26514542993E+01 -0.15178440386E+02  0.15033529455E+02  0.21527504137E+02  0.10566000000E+00 0.  1.
        994    1    1    2    0    0 -0.43348747374E+01  0.12947280582E+02  0.72259936045E+01  0.17189554444E+03  0.17120000000E+03 0.  0.
        998    1    1    2    0    0  0.16834204381E+01  0.22311598042E+01  0.14777404732E+04  0.14777769514E+04  0.10000000000E+02 0.  1.
</event>
<event>
 5    1  0.9130022E-009  0.3791104E+03  0.7957747E-01  0.3455041E+00
         13   -1    0    0    0    0  0.00000000000E+00  0.00000000000E+00  0.14999999963E+04  0.15000000000E+04  0.10566000000E+00 0. -1.
        994   -1    0    0    0    0 -0.00000000000E+00 -0.00000000000E+00  0.11368683772E-12  0.17120000000E+03  0.17120000000E+03 0.  0.
         13    1    1    2    0    0 -0.12265351818E+02  0.13769718668E+02  0.34777414286E+02  0.39363990091E+02  0.10566000000E+00 0. -1.
        994    1    1    2    0    0  0.15354258451E+02 -0.91575750532E+01  0.56551784653E+01  0.17222379475E+03  0.17120000000E+03 0.  0.
        998    1    1    2    0    0 -0.30889066338E+01 -0.46121436145E+01  0.14595674035E+04  0.14596122152E+04  0.10000000000E+02 0. -1.
</event>
<event>
 5    1  0.9130022E-009  0.3832708E+03  0.7957747E-01  0.3437039E+00
         13   -1    0    0    0    0  0.00000000000E+00  0.00000000000E+00  0.14999999963E+04  0.15000000000E+04  0.10566000000E+00 0. -1.
        994   -1    0    0    0    0 -0.00000000000E+00 -0.00000000000E+00  0.11368683772E-12  0.17120000000E+03  0.17120000000E+03 0.  0.
         13    1    1    2    0    0  0.59701901329E+01 -0.95278325577E+01  0.24932291750E+02  0.27350559398E+02  0.10566000000E+00 0. -1.
        994    1    1    2    0    0  0.12066155219E+02  0.11024109503E+02  0.33750073127E+01  0.17201149312E+03  0.17120000000E+03 0.  0.
        998    1    1    2    0    0 -0.18036345352E+02 -0.14962769448E+01  0.14716926972E+04  0.14718379475E+04  0.10000000000E+02 0. -1.
</event>
<event>
 5    1  0.9130022E-009  0.3711552E+03  0.7957747E-01  0.3490599E+00
         13   -1    0    0    0    0  0.00000000000E+00  0.00000000000E+00  0.14999999963E+04  0.15000000000E+04  0.10566000000E+00 0. -1.
        994   -1    0    0    0    0 -0.00000000000E+00 -0.00000000000E+00  0.11368683772E-12  0.17120000000E+03  0.17120000000E+03 0.  0.
         13    1    1    2    0    0  0.34993657395E+02  0.26950681221E+02  0.12593018845E+03  0.13345155976E+03  0.10566000000E+00 0. -1.
        994    1    1    2    0    0  0.12180002914E+02 -0.70940410215E+01  0.93510141423E+01  0.17203359949E+03  0.17120000000E+03 0.  0.
        998    1    1    2    0    0 -0.47173660309E+02 -0.19856640200E+02  0.13647187937E+04  0.13657148407E+04  0.10000000000E+02 0. -1.
</event>
<event>
 5    1  0.9130022E-009  0.3753107E+03  0.7957747E-01  0.3471835E+00
         13   -1    0    0    0    0  0.00000000000E+00  0.00000000000E+00  0.14999999963E+04  0.15000000000E+04  0.10566000000E+00 0.  1.
        994   -1    0    0    0    0 -0.00000000000E+00 -0.00000000000E+00  0.11368683772E-12  0.17120000000E+03  0.17120000000E+03 0.  0.
         13    1    1    2    0    0 -0.24253848397E+02 -0.82670970109E+02  0.44283270767E+03  0.45113585161E+03  0.10566000000E+00 0.  1.
        994    1    1    2    0    0  0.32491226777E+02  0.69475122672E+02  0.26763683997E+02  0.18949461013E+03  0.17120000000E+03 0.  0.
        998    1    1    2    0    0 -0.82373783807E+01  0.13195847437E+02  0.10304036046E+04  0.10305695383E+04  0.10000000000E+02 0.  1.
</event>
<event>
 5    1  0.9130022E-009  0.3741518E+03  0.7957747E-01  0.3477025E+00
         13   -1    0    0    0    0  0.00000000000E+00  0.00000000000E+00  0.14999999963E+04  0.15000000000E+04  0.10566000000E+00 0. -1.
        994   -1    0    0    0    0 -0.00000000000E+00 -0.00000000000E+00  0.11368683772E-12  0.17120000000E+03  0.17120000000E+03 0.  0.
         13    1    1    2    0    0 -0.23483559462E+02 -0.25884097774E+02  0.85538774724E+02  0.92403231696E+02  0.10566000000E+00 0. -1.
        994    1    1    2    0    0  0.83721991144E+01  0.12422642713E+02  0.78803276399E+01  0.17203475037E+03  0.17120000000E+03 0.  0.
        998    1    1    2    0    0  0.15111360348E+02  0.13461455061E+02  0.14065808939E+04  0.14067620179E+04  0.10000000000E+02 0. -1.
</event>
<event>
 5    1  0.9130022E-009  0.3705501E+03  0.7957747E-01  0.3493366E+00
         13   -1    0    0    0    0  0.00000000000E+00  0.00000000000E+00  0.14999999963E+04  0.15000000000E+04  0.10566000000E+00 0. -1.
        994   -1    0    0    0    0 -0.00000000000E+00 -0.00000000000E+00  0.11368683772E-12  0.17120000000E+03  0.17120000000E+03 0.  0.
         13    1    1    2    0    0 -0.33743853760E+02  0.40342580398E+02  0.11102187022E+03  0.12284965727E+03  0.10566000000E+00 0. -1.
        994    1    1    2    0    0  0.33386089289E+02 -0.40748678921E+02  0.21014471970E+02  0.18035003139E+03  0.17120000000E+03 0.  0.
        998    1    1    2    0    0  0.35776447093E+00  0.40609852314E+00  0.13679636541E+04  0.13680003113E+04  0.10000000000E+02 0.  0.
</event>
<event>
 5    1  0.9130022E-009  0.3808040E+03  0.7957747E-01  0.3447665E+00
         13   -1    0    0    0    0  0.00000000000E+00  0.00000000000E+00  0.14999999963E+04  0.15000000000E+04  0.10566000000E+00 0. -1.
        994   -1    0    0    0    0 -0.00000000000E+00 -0.00000000000E+00  0.11368683772E-12  0.17120000000E+03  0.17120000000E+03 0.  0.
         13    1    1    2    0    0 -0.29566103581E+02  0.20817380098E+02  0.15167816000E+03  0.15592880805E+03  0.10566000000E+00 0. -1.
        994    1    1    2    0    0  0.35126334281E+02 -0.23681280096E+02  0.97346124942E+01  0.17663200465E+03  0.17120000000E+03 0.  0.
        998    1    1    2    0    0 -0.55602307005E+01  0.28638999973E+01  0.13385872238E+04  0.13386391873E+04  0.10000000000E+02 0.  0.
</event>
<event>
 5    1  0.9130022E-009  0.3727636E+03  0.7957747E-01  0.3483285E+00
         13   -1    0    0    0    0  0.00000000000E+00  0.00000000000E+00  0.14999999963E+04  0.15000000000E+04  0.10566000000E+00 0.  1.
        994   -1    0    0    0    0 -0.00000000000E+00 -0.00000000000E+00  0.11368683772E-12  0.17120000000E+03  0.17120000000E+03 0.  0.
         13    1    1    2    0    0 -0.18232474240E+02  0.67261452957E+01  0.20765344036E+02  0.28440724752E+02  0.10566000000E+00 0.  1.
        994    1    1    2    0    0  0.14136672651E+02 -0.16702862236E+01  0.85259995744E+01  0.17200223266E+03  0.17120000000E+03 0.  0.
        998    1    1    2    0    0  0.40958015892E+01 -0.50558590721E+01  0.14707086527E+04  0.14707570426E+04  0.10000000000E+02 0.  1.
</event>
<event>
 5    1  0.9130022E-009  0.3793910E+03  0.7957747E-01  0.3453815E+00
         13   -1    0    0    0    0  0.00000000000E+00  0.00000000000E+00  0.14999999963E+04  0.15000000000E+04  0.10566000000E+00 0.  1.
        994   -1    0    0    0    0 -0.00000000000E+00 -0.00000000000E+00  0.11368683772E-12  0.17120000000E+03  0.17120000000E+03 0.  0.
         13    1    1    2    0    0 -0.16260277025E+02  0.10679047022E+02  0.41650365975E+02  0.45969585642E+02  0.10566000000E+00 0.  1.
        994    1    1    2    0    0  0.95435732438E+01  0.84578529671E+00  0.47484352925E+01  0.17153361997E+03  0.17120000000E+03 0.  0.
        998    1    1    2    0    0  0.67167037807E+01 -0.11524832319E+02  0.14536011950E+04  0.14536967944E+04  0.10000000000E+02 0.  1.
</event>
<event>
 5    1  0.9130022E-009  0.3841511E+03  0.7957747E-01  0.3433280E+00
         13   -1    0    0    0    0  0.00000000000E+00  0.00000000000E+00  0.14999999963E+04  0.15000000000E+04  0.10566000000E+00 0. -1.
        994   -1    0    0    0    0 -0.00000000000E+00 -0.00000000000E+00  0.11368683772E-12  0.17120000000E+03  0.17120000000E+03 0.  0.
         13    1    1    2    0    0 -0.38015963692E+01 -0.10480362170E+02  0.29468182847E+02  0.31506746746E+02  0.10566000000E+00 0. -1.
        994    1    1    2    0    0  0.43425769735E+01  0.89771501564E+01  0.23801982378E+01  0.17150671282E+03  0.17120000000E+03 0.  0.
        998    1    1    2    0    0 -0.54098060431E+00  0.15032120140E+01  0.14681516152E+04  0.14681865404E+04  0.10000000000E+02 0. -1.
</event>
<event>
 5    1  0.9130022E-009  0.3859754E+03  0.7957747E-01  0.3425546E+00
         13   -1    0    0    0    0  0.00000000000E+00  0.00000000000E+00  0.14999999963E+04  0.15000000000E+04  0.10566000000E+00 0. -1.
        994   -1    0    0    0    0 -0.00000000000E+00 -0.00000000000E+00  0.11368683772E-12  0.17120000000E+03  0.17120000000E+03 0.  0.
         13    1    1    2    0    0 -0.46512937504E-01 -0.11356512304E+02  0.59652955106E+02  0.60724449376E+02  0.10566000000E+00 0. -1.
        994    1    1    2    0    0  0.24499948010E+02  0.18413599434E+01  0.31280431295E+01  0.17298226127E+03  0.17120000000E+03 0.  0.
        998    1    1    2    0    0 -0.24453435072E+02  0.95151523609E+01  0.14372189980E+04  0.14374932894E+04  0.10000000000E+02 0. -1.
</event>
<event>
 5    1  0.9130022E-009  0.3759346E+03  0.7957747E-01  0.3469053E+00
         13   -1    0    0    0    0  0.00000000000E+00  0.00000000000E+00  0.14999999963E+04  0.15000000000E+04  0.10566000000E+00 0. -1.
        994   -1    0    0    0    0 -0.00000000000E+00 -0.00000000000E+00  0.11368683772E-12  0.17120000000E+03  0.17120000000E+03 0.  0.
         13    1    1    2    0    0  0.25573717839E+02 -0.24146391977E+01  0.53109822685E+02  0.58995846941E+02  0.10566000000E+00 0. -1.
        994    1    1    2    0    0 -0.30847866362E+01  0.45302013507E+01  0.63013793958E+01  0.17140357644E+03  0.17120000000E+03 0.  0.
        998    1    1    2    0    0 -0.22488931202E+02 -0.21155621529E+01  0.14405887942E+04  0.14408005766E+04  0.10000000000E+02 0. -1.
</event>
<event>
 5    1  0.9130022E-009  0.3803857E+03  0.7957747E-01  0.3449481E+00
         13   -1    0    0    0    0  0.00000000000E+00  0.00000000000E+00  0.14999999963E+04  0.15000000000E+04  0.10566000000E+00 0. -1.
        994   -1    0    0    0    0 -0.00000000000E+00 -0.00000000000E+00  0.11368683772E-12  0.17120000000E+03  0.17120000000E+03 0.  0.
         13    1    1    2    0    0  0.31712977636E+02 -0.29884543595E+02  0.20312976736E+03  0.20775108290E+03  0.10566000000E+00 0. -1.
        994    1    1    2    0    0 -0.28481258120E+02  0.39083290443E+02  0.11786422260E+02  0.17828921842E+03  0.17120000000E+03 0.  0.
        998    1    1    2    0    0 -0.32317195165E+01 -0.91987468487E+01  0.12850838067E+04  0.12851596987E+04  0.10000000000E+02 0. -1.
</event>
<event>
 5    1  0.9130022E-009  0.3807183E+03  0.7957747E-01  0.3448037E+00
         13   -1    0    0    0    0  0.00000000000E+00  0.00000000000E+00  0.14999999963E+04  0.15000000000E+04  0.10566000000E+00 0.  1.
        994   -1    0    0    0    0 -0.00000000000E+00 -0.00000000000E+00  0.11368683772E-12  0.17120000000E+03  0.17120000000E+03 0.  0.
         13    1    1    2    0    0 -0.42940035239E+01  0.15550986662E+02  0.33129924127E+02  0.36849351272E+02  0.10566000000E+00 0.  1.
        994    1    1    2    0    0  0.28487498294E+01 -0.98529319210E+01  0.41218966962E+01  0.17155647955E+03  0.17120000000E+03 0.  0.
        998    1    1    2    0    0  0.14452536946E+01 -0.56980547412E+01  0.14627481755E+04  0.14627941692E+04  0.10000000000E+02 0.  1.
</event>
<event>
 5    1  0.9130022E-009  0.3824682E+03  0.7957747E-01  0.3440481E+00
         13   -1    0    0    0    0  0.00000000000E+00  0.00000000000E+00  0.14999999963E+04  0.15000000000E+04  0.10566000000E+00 0. -1.
        994   -1    0    0    0    0 -0.00000000000E+00 -0.00000000000E+00  0.11368683772E-12  0.17120000000E+03  0.17120000000E+03 0.  0.
         13    1    1    2    0    0  0.56291302583E+00 -0.21460564134E+02  0.89097151520E+02  0.91647074460E+02  0.10566000000E+00 0. -1.
        994    1    1    2    0    0  0.33183036065E+01 -0.76385592196E+01  0.31223712651E+01  0.17143088382E+03  0.17120000000E+03 0.  0.
        998    1    1    2    0    0 -0.38812166324E+01  0.29099123353E+02  0.14077804735E+04  0.14081220417E+04  0.10000000000E+02 0. -1.
</event>
<event>
 5    1  0.9130022E-009  0.3757903E+03  0.7957747E-01  0.3469696E+00
         13   -1    0    0    0    0  0.00000000000E+00  0.00000000000E+00  0.14999999963E+04  0.15000000000E+04  0.10566000000E+00 0. -1.
        994   -1    0    0    0    0 -0.00000000000E+00 -0.00000000000E+00  0.11368683772E-12  0.17120000000E+03  0.17120000000E+03 0.  0.
         13    1    1    2    0    0 -0.34920642452E+02  0.18583660254E+02  0.13070968735E+03  0.13656440689E+03  0.10566000000E+00 0. -1.
        994    1    1    2    0    0  0.10548643375E+02 -0.28609403356E+01  0.66785204867E+01  0.17167848290E+03  0.17120000000E+03 0.  0.
        998    1    1    2    0    0  0.24371999077E+02 -0.15722719919E+02  0.13626117884E+04  0.13629571102E+04  0.10000000000E+02 0. -1.
</event>
<event>
 5    1  0.9130022E-009  0.3786292E+03  0.7957747E-01  0.3457149E+00
         13   -1    0    0    0    0  0.00000000000E+00  0.00000000000E+00  0.14999999963E+04  0.15000000000E+04  0.10566000000E+00 0. -1.
        994   -1    0    0    0    0 -0.00000000000E+00 -0.00000000000E+00  0.11368683772E-12  0.17120000000E+03  0.17120000000E+03 0.  0.
         13    1    1    2    0    0  0.18932819441E+02 -0.58752714142E+01  0.42333288958E+02  0.46744935386E+02  0.10566000000E+00 0. -1.
        994    1    1    2    0    0 -0.26063978639E+00 -0.44292243442E+02  0.11443342592E+02  0.17720683071E+03  0.17120000000E+03 0.  0.
        998    1    1    2    0    0 -0.18672179655E+02  0.50167514856E+02  0.14462233647E+04  0.14472482339E+04  0.10000000000E+02 0. -1.
</event>
<event>
 5    1  0.9130022E-009  0.3814573E+03  0.7957747E-01  0.3444837E+00
         13   -1    0    0    0    0  0.00000000000E+00  0.00000000000E+00  0.14999999963E+04  0.15000000000E+04  0.10566000000E+00 0.  1.
        994   -1    0    0    0    0 -0.00000000000E+00 -0.00000000000E+00  0.11368683772E-12  0.17120000000E+03  0.17120000000E+03 0.  0.
         13    1    1    2    0    0 -0.20772721834E+02  0.24590950162E+02  0.13726087681E+03  0.14098503562E+03  0.10566000000E+00 0.  1.
        994    1    1    2    0    0  0.19858755115E+02 -0.27847218686E+02  0.73010130274E+01  0.17473575059E+03  0.17120000000E+03 0.  0.
        998    1    1    2    0    0  0.91396671963E+00  0.32562685235E+01  0.13554381064E+04  0.13554792138E+04  0.10000000000E+02 0.  1.
</event>
<event>
 5    1  0.9130022E-009  0.3824614E+03  0.7957747E-01  0.3440510E+00
         13   -1    0    0    0    0  0.00000000000E+00  0.00000000000E+00  0.14999999963E+04  0.15000000000E+04  0.10566000000E+00 0.  1.
        994   -1    0    0    0    0 -0.00000000000E+00 -0.00000000000E+00  0.11368683772E-12  0.17120000000E+03  0.17120000000E+03 0.  0.
         13    1    1    2    0    0  0.74770162847E+00 -0.17313567051E+02  0.48851361520E+02  0.51834210210E+02  0.10566000000E+00 0.  1.
        994    1    1    2    0    0 -0.39982860088E+01  0.20922085127E+02  0.44017286418E+01  0.17257617203E+03  0.17120000000E+03 0.  0.
        998    1    1    2    0    0  0.32505843803E+01 -0.36085180767E+01  0.14467469061E+04  0.14467896178E+04  0.10000000000E+02 0.  1.
</event>
<event>
 5    1  0.9130022E-009  0.3785368E+03  0.7957747E-01  0.3457555E+00
         13   -1    0    0    0    0  0.00000000000E+00  0.00000000000E+00  0.14999999963E+04  0.15000000000E+04  0.10566000000E+00 0. -1.
        994   -1    0    0    0    0 -0.00000000000E+00 -0.00000000000E+00  0.11368683772E-12  0.17120000000E+03  0.17120000000E+03 0.  0.
         13    1    1    2    0    0  0.18568762209E+02  0.16687339960E+02  0.62449977684E+02  0.67255312962E+02  0.10566000000E+00 0. -1.
        994    1    1    2    0    0 -0.62894790109E+01 -0.14874393759E+02  0.57501755128E+01  0.17205612356E+03  0.17120000000E+03 0.  0.
        998    1    1    2    0    0 -0.12279283198E+02 -0.18129462008E+01  0.14317998431E+04  0.14318885635E+04  0.10000000000E+02 0. -1.
</event>
<event>
 5    1  0.9130022E-009  0.3821495E+03  0.7957747E-01  0.3441852E+00
         13   -1    0    0    0    0  0.00000000000E+00  0.00000000000E+00  0.14999999963E+04  0.15000000000E+04  0.10566000000E+00 0.  1.
        994   -1    0    0    0    0 -0.00000000000E+00 -0.00000000000E+00  0.11368683772E-12  0.17120000000E+03  0.17120000000E+03 0.  0.
         13    1    1    2    0    0  0.16291355044E+02  0.31382227301E+01  0.44178357681E+02  0.47191049389E+02  0.10566000000E+00 0.  1.
        994    1    1    2    0    0 -0.98018690041E+01 -0.35098919243E+01  0.34118747911E+01  0.17155021675E+03  0.17120000000E+03 0.  0.
        998    1    1    2    0    0 -0.64894860399E+01  0.37166919428E+00  0.14524097638E+04  0.14524587339E+04  0.10000000000E+02 0.  1.
</event>
<event>
 5    1  0.9130022E-009  0.3844330E+03  0.7957747E-01  0.3432080E+00
         13   -1    0    0    0    0  0.00000000000E+00  0.00000000000E+00  0.14999999963E+04  0.15000000000E+04  0.10566000000E+00 0. -1.
        994   -1    0    0    0    0 -0.00000000000E+00 -0.00000000000E+00  0.11368683772E-12  0.17120000000E+03  0.17120000000E+03 0.  0.
         13    1    1    2    0    0 -0.36461337784E+01  0.10614378409E+02  0.32133174118E+02  0.34036911779E+02  0.10566000000E+00 0. -1.
        994    1    1    2    0    0  0.42343601266E+01 -0.95905641460E+01  0.22740946102E+01  0.17153576954E+03  0.17120000000E+03 0.  0.
        998    1    1    2    0    0 -0.58822634812E+00 -0.10238142632E+01  0.14655927276E+04  0.14656273187E+04  0.10000000000E+02 0. -1.
</event>
<event>
 5    1  0.9130022E-009  0.3838173E+03  0.7957747E-01  0.3434704E+00
         13   -1    0    0    0    0  0.00000000000E+00  0.00000000000E+00  0.14999999963E+04  0.15000000000E+04  0.10566000000E+00 0.  1.
        994   -1    0    0    0    0 -0.00000000000E+00 -0.00000000000E+00  0.11368683772E-12  0.17120000000E+03  0.17120000000E+03 0.  0.
         13    1    1    2    0    0  0.26445483667E+02 -0.27726886165E+01  0.14640854069E+03  0.14880364028E+03  0.10566000000E+00 0.  1.
        994    1    1    2    0    0 -0.25694162813E+02  0.38969293545E+01  0.44512793480E+01  0.17321844575E+03  0.17120000000E+03 0.  0.
        998    1    1    2    0    0 -0.75132085468E+00 -0.11242407379E+01  0.13491401762E+04  0.13491779140E+04  0.10000000000E+02 0.  1.
</event>
<event>
 5    1  0.9130022E-009  0.3825276E+03  0.7957747E-01  0.3440226E+00
         13   -1    0    0    0    0  0.00000000000E+00  0.00000000000E+00  0.14999999963E+04  0.15000000000E+04  0.10566000000E+00 0. -1.
        994   -1    0    0    0    0 -0.00000000000E+00 -0.00000000000E+00  0.11368683772E-12  0.17120000000E+03  0.17120000000E+03 0.  0.
         13    1    1    2    0    0  0.13696003226E+02 -0.18542456092E+02  0.88332052503E+02  0.91290557264E+02  0.10566000000E+00 0. -1.
        994    1    1    2    0    0 -0.16315788029E+02  0.14623594243E+02  0.44557664477E+01  0.17265383952E+03  0.17120000000E+03 0.  0.
        998    1    1    2    0    0  0.26197848034E+01  0.39188618496E+01  0.14072121773E+04  0.14072556032E+04  0.10000000000E+02 0. -1.
</event>
<event>
 5    1  0.9130022E-009  0.3777473E+03  0.7957747E-01  0.3461026E+00
         13   -1    0    0    0    0  0.00000000000E+00  0.00000000000E+00  0.14999999963E+04  0.15000000000E+04  0.10566000000E+00 0. -1.
        994   -1    0    0    0    0 -0.00000000000E+00 -0.00000000000E+00  0.11368683772E-12  0.17120000000E+03  0.17120000000E+03 0.  0.
         13    1    1    2    0    0 -0.55102424981E+01 -0.35410693025E+02  0.12653001185E+03  0.13150716717E+03  0.10566000000E+00 0. -1.
        994    1    1    2    0    0 -0.15169714321E+01  0.11535777294E+02  0.57306954186E+01  0.17169058282E+03  0.17120000000E+03 0.  0.
        998    1    1    2    0    0  0.70272139302E+01  0.23874915731E+02  0.13677392890E+04  0.13680022500E+04  0.10000000000E+02 0. -1.
</event>
<event>
 5    1  0.9130022E-009  0.3808601E+03  0.7957747E-01  0.3447422E+00
         13   -1    0    0    0    0  0.00000000000E+00  0.00000000000E+00  0.14999999963E+04  0.15000000000E+04  0.10566000000E+00 0. -1.
        994   -1    0    0    0    0 -0.00000000000E+00 -0.00000000000E+00  0.11368683772E-12  0.17120000000E+03  0.17120000000E+03 0.  0.
         13    1    1    2    0    0 -0.90190870649E+01 -0.17820301848E+02  0.53541433041E+02  0.57145457435E+02  0.10566000000E+00 0. -1.
        994    1    1    2    0    0  0.20356342225E+02 -0.63315433827E+00  0.50834766819E+01  0.17248206657E+03  0.17120000000E+03 0.  0.
        998    1    1    2    0    0 -0.11337255160E+02  0.18453456186E+02  0.14413750866E+04  0.14415724760E+04  0.10000000000E+02 0. -1.
</event>
<event>
 5    1  0.1408199E-008  0.3860923E+03  0.7957747E-01  0.3425053E+00
         13   -1    0    0    0    0  0.00000000000E+00  0.00000000000E+00  0.14999999963E+04  0.15000000000E+04  0.10566000000E+00 0. -1.
        994   -1    0    0    0    0 -0.00000000000E+00 -0.00000000000E+00  0.11368683772E-12  0.17120000000E+03  0.17120000000E+03 0.  0.
         13    1    1    2    0    0 -0.12060681423E+02 -0.20934005710E+00  0.65554247619E+02  0.66654890327E+02  0.10566000000E+00 0. -1.
        994    1    1    2    0    0  0.12293784674E+02 -0.27808630215E+01  0.16095827064E+01  0.17167090929E+03  0.17120000000E+03 0.  0.
        998    1    1    2    0    0 -0.23310325077E+00  0.29902030786E+01  0.14328361660E+04  0.14328742004E+04  0.10000000000E+02 0. -1.
</event>
<event>
 5    1  0.9130022E-009  0.3800759E+03  0.7957747E-01  0.3450828E+00
         13   -1    0    0    0    0  0.00000000000E+00  0.00000000000E+00  0.14999999963E+04  0.15000000000E+04  0.10566000000E+00 0. -1.
        994   -1    0    0    0    0 -0.00000000000E+00 -0.00000000000E+00  0.11368683772E-12  0.17120000000E+03  0.17120000000E+03 0.  0.
         13    1    1    2    0    0  0.20264374157E+02 -0.95858203984E+01  0.58732375927E+02  0.62865220581E+02  0.10566000000E+00 0. -1.
        994    1    1    2    0    0 -0.30116153934E+02 -0.18198118479E+02  0.82439151854E+01  0.17497301615E+03  0.17120000000E+03 0.  0.
        998    1    1    2    0    0  0.98517797770E+01  0.27783938877E+02  0.14330237052E+04  0.14333617633E+04  0.10000000000E+02 0. -1.
</event>
<event>
 5    1  0.9130022E-009  0.3833430E+03  0.7957747E-01  0.3436730E+00
         13   -1    0    0    0    0  0.00000000000E+00  0.00000000000E+00  0.14999999963E+04  0.15000000000E+04  0.10566000000E+00 0. -1.
        994   -1    0    0    0    0 -0.00000000000E+00 -0.00000000000E+00  0.11368683772E-12  0.17120000000E+03  0.17120000000E+03 0.  0.
         13    1    1    2    0    0  0.22909814925E+01  0.18447827291E+02  0.72545431529E+02  0.74889396631E+02  0.10566000000E+00 0. -1.
        994    1    1    2    0    0  0.55397653317E+01 -0.56028470809E+01  0.26603313814E+01  0.17140186189E+03  0.17120000000E+03 0.  0.
        998    1    1    2    0    0 -0.78307468242E+01 -0.12844980210E+02  0.14247942334E+04  0.14249087415E+04  0.10000000000E+02 0. -1.
</event>
<event>
 5    1  0.9130022E-009  0.3722767E+03  0.7957747E-01  0.3485493E+00
         13   -1    0    0    0    0  0.00000000000E+00  0.00000000000E+00  0.14999999963E+04  0.15000000000E+04  0.10566000000E+00 0.  1.
        994   -1    0    0    0    0 -0.00000000000E+00 -0.00000000000E+00  0.11368683772E-12  0.17120000000E+03  0.17120000000E+03 0.  0.
         13    1    1    2    0    0 -0.19795881378E+02 -0.10419029773E+02  0.27856619567E+02  0.35727237771E+02  0.10566000000E+00 0.  1.
        994    1    1    2    0    0  0.17714147449E+02 -0.85459436473E+01  0.94120983537E+01  0.17258288376E+03  0.17120000000E+03 0.  0.
        998    1    1    2    0    0  0.20817339287E+01  0.18964973421E+02  0.14627312784E+04  0.14628898785E+04  0.10000000000E+02 0.  1.
</event>
<event>
 5    1  0.9130022E-009  0.3742284E+03  0.7957747E-01  0.3476681E+00
         13   -1    0    0    0    0  0.00000000000E+00  0.00000000000E+00  0.14999999963E+04  0.15000000000E+04  0.10566000000E+00 0.  1.
        994   -1    0    0    0    0 -0.00000000000E+00 -0.00000000000E+00  0.11368683772E-12  0.17120000000E+03  0.17120000000E+03 0.  0.
         13    1    1    2    0    0  0.58470698994E+01  0.85411617517E+01  0.40534927397E+01  0.11116727842E+02  0.10566000000E+00 0.  1.
        994    1    1    2    0    0  0.91242306004E+00 -0.33435887272E+02  0.10897911924E+02  0.17477698807E+03  0.17120000000E+03 0.  0.
        998    1    1    2    0    0 -0.67594929594E+01  0.24894725521E+02  0.14850485916E+04  0.14853062841E+04  0.10000000000E+02 0.  1.
</event>
<event>
 5    1  0.9130022E-009  0.3735597E+03  0.7957747E-01  0.3479689E+00
         13   -1    0    0    0    0  0.00000000000E+00  0.00000000000E+00  0.14999999963E+04  0.15000000000E+04  0.10566000000E+00 0.  1.
        994   -1    0    0    0    0 -0.00000000000E+00 -0.00000000000E+00  0.11368683772E-12  0.17120000000E+03  0.17120000000E+03 0.  0.
         13    1    1    2    0    0 -0.20094957796E+02 -0.80648982165E+02  0.33991308514E+03  0.34992710994E+03  0.10566000000E+00 0.  1.
        994    1    1    2    0    0  0.26688904701E+02  0.84957630981E+02  0.35011944812E+02  0.19612591103E+03  0.17120000000E+03 0.  0.
        998    1    1    2    0    0 -0.65939469041E+01 -0.43086488163E+01  0.11250749663E+04  0.11251469790E+04  0.10000000000E+02 0.  0.
</event>
<event>
 5    1  0.9130022E-009  0.3823730E+03  0.7957747E-01  0.3440890E+00
         13   -1    0    0    0    0  0.00000000000E+00  0.00000000000E+00  0.14999999963E+04  0.15000000000E+04  0.10566000000E+00 0.  1.
        994   -1    0    0    0    0 -0.00000000000E+00 -0.00000000000E+00  0.11368683772E-12  0.17120000000E+03  0.17120000000E+03 0.  0.
         13    1    1    2    0    0 -0.21175951528E+02  0.18794989801E+02  0.13010779895E+03  0.13315300626E+03  0.10566000000E+00 0.  1.
        994    1    1    2    0    0  0.21331137081E+02 -0.10496365568E+02  0.48169658478E+01  0.17290990214E+03  0.17120000000E+03 0.  0.
        998    1    1    2    0    0 -0.15518555326E+00 -0.82986242330E+01  0.13650752315E+04  0.13651370916E+04  0.10000000000E+02 0.  1.
</event>
<event>
 5    1  0.9130022E-009  0.3791127E+03  0.7957747E-01  0.3455031E+00
         13   -1    0    0    0    0  0.00000000000E+00  0.00000000000E+00  0.14999999963E+04  0.15000000000E+04  0.10566000000E+00 0. -1.
        994   -1    0    0    0    0 -0.00000000000E+00 -0.00000000000E+00  0.11368683772E-12  0.17120000000E+03  0.17120000000E+03 0.  0.
         13    1    1    2    0    0 -0.63045092506E+02 -0.98508171698E+02  0.28855035154E+03  0.31135166632E+03  0.10566000000E+00 0. -1.
        994    1    1    2    0    0  0.61430140109E+02  0.13107659218E+03  0.96013567991E+02  0.24389091900E+03  0.17120000000E+03 0.  0.
        998    1    1    2    0    0  0.16149523969E+01 -0.32568420480E+02  0.11154360767E+04  0.11159574147E+04  0.10000000000E+02 0. -1.
</event>
<event>
 5    1  0.9130022E-009  0.3833412E+03  0.7957747E-01  0.3436738E+00
         13   -1    0    0    0    0  0.00000000000E+00  0.00000000000E+00  0.14999999963E+04  0.15000000000E+04  0.10566000000E+00 0. -1.
        994   -1    0    0    0    0 -0.00000000000E+00 -0.00000000000E+00  0.11368683772E-12  0.17120000000E+03  0.17120000000E+03 0.  0.
         13    1    1    2    0    0 -0.88957597917E+01  0.20302199411E+02  0.12678883885E+03  0.12871182799E+03  0.10566000000E+00 0. -1.
        994    1    1    2    0    0 -0.78461747428E+01  0.16206381065E+02  0.35286624042E+01  0.17218043066E+03  0.17120000000E+03 0.  0.
        998    1    1    2    0    0  0.16741934535E+02 -0.36508580475E+02  0.13696824950E+04  0.13703077413E+04  0.10000000000E+02 0. -1.
</event>
<event>
 5    1  0.9130022E-009  0.3800971E+03  0.7957747E-01  0.3450736E+00
         13   -1    0    0    0    0  0.00000000000E+00  0.00000000000E+00  0.14999999963E+04  0.15000000000E+04  0.10566000000E+00 0. -1.
        994   -1    0    0    0    0 -0.00000000000E+00 -0.00000000000E+00  0.11368683772E-12  0.17120000000E+03  0.17120000000E+03 0.  0.
         13    1    1    2    0    0 -0.17091018116E+02 -0.13781641509E+03  0.62094917357E+03  0.63628873516E+03  0.10566000000E+00 0. -1.
        994    1    1    2    0    0  0.21381146456E+02  0.18423785690E+03  0.12921440690E+03  0.28356047730E+03  0.17120000000E+03 0.  0.
        998    1    1    2    0    0 -0.42901283407E+01 -0.46421441812E+02  0.74983641581E+03  0.75135078754E+03  0.10000000000E+02 0. -1.
</event>
<event>
 5    1  0.1768204E-008  0.3863828E+03  0.7957747E-01  0.3423829E+00
         13   -1    0    0    0    0  0.00000000000E+00  0.00000000000E+00  0.14999999963E+04  0.15000000000E+04  0.10566000000E+00 0. -1.
        994   -1    0    0    0    0 -0.00000000000E+00 -0.00000000000E+00  0.11368683772E-12  0.17120000000E+03  0.17120000000E+03 0.  0.
         13    1    1    2    0    0  0.10282332784E+01 -0.10675801869E+02  0.59011049368E+02  0.59977871926E+02  0.10566000000E+00 0. -1.
        994    1    1    2    0    0 -0.92693377666E-01  0.13632076297E+02  0.15538283947E+01  0.17174893443E+03  0.17120000000E+03 0.  0.
        998    1    1    2    0    0 -0.93553990077E+00 -0.29562744282E+01  0.14394351185E+04  0.14394731936E+04  0.10000000000E+02 0. -1.
</event>
<event>
 5    1  0.3127294E-008  0.3862164E+03  0.7957747E-01  0.3424530E+00
         13   -1    0    0    0    0  0.00000000000E+00  0.00000000000E+00  0.14999999963E+04  0.15000000000E+04  0.10566000000E+00 0. -1.
        994   -1    0    0    0    0 -0.00000000000E+00 -0.00000000000E+00  0.11368683772E-12  0.17120000000E+03  0.17120000000E+03 0.  0.
         13    1    1    2    0    0 -0.83761931218E+01 -0.84363053553E+01  0.70723084640E+02  0.71715393914E+02  0.10566000000E+00 0. -1.
        994    1    1    2    0    0  0.63061368980E+01  0.27337572883E+01  0.11821946455E+01  0.17134199245E+03  0.17120000000E+03 0.  0.
        998    1    1    2    0    0  0.20700562238E+01  0.57025480670E+01  0.14280947170E+04  0.14281426136E+04  0.10000000000E+02 0. -1.
</event>
<event>
 5    1  0.9130022E-009  0.3798237E+03  0.7957747E-01  0.3451926E+00
         13   -1    0    0    0    0  0.00000000000E+00  0.00000000000E+00  0.14999999963E+04  0.15000000000E+04  0.10566000000E+00 0. -1.
        994   -1    0    0    0    0 -0.00000000000E+00 -0.00000000000E+00  0.11368683772E-12  0.17120000000E+03  0.17120000000E+03 0.  0.
         13    1    1    2    0    0  0.16738158516E+02 -0.38212772864E+01  0.33847155602E+02  0.37952723446E+02  0.10566000000E+00 0. -1.
        994    1    1    2    0    0 -0.45944198578E+01  0.68226728118E+01  0.44484974182E+01  0.17145520315E+03  0.17120000000E+03 0.  0.
        998    1    1    2    0    0 -0.12143738658E+02 -0.30013955255E+01  0.14617043433E+04  0.14617920734E+04  0.10000000000E+02 0. -1.
</event>
<event>
 5    1  0.9130022E-009  0.3739588E+03  0.7957747E-01  0.3477893E+00
         13   -1    0    0    0    0  0.00000000000E+00  0.00000000000E+00  0.14999999963E+04  0.15000000000E+04  0.10566000000E+00 0.  1.
        994   -1    0    0    0    0 -0.00000000000E+00 -0.00000000000E+00  0.11368683772E-12  0.17120000000E+03  0.17120000000E+03 0.  0.
         13    1    1    2    0    0 -0.17045659071E+02  0.55986849606E+02  0.19735475428E+03  0.20584944018E+03  0.10566000000E+00 0.  1.
        994    1    1    2    0    0  0.40994463529E+02 -0.55843456042E+02  0.23765630877E+02  0.18620763366E+03  0.17120000000E+03 0.  0.
        998    1    1    2    0    0 -0.23948804458E+02 -0.14339356396E+00  0.12788796111E+04  0.12791429262E+04  0.10000000000E+02 0.  1.
</event>
<event>
 5    1  0.9130022E-009  0.3719039E+03  0.7957747E-01  0.3487186E+00
         13   -1    0    0    0    0  0.00000000000E+00  0.00000000000E+00  0.14999999963E+04  0.15000000000E+04  0.10566000000E+00 0. -1.
        994   -1    0    0    0    0 -0.00000000000E+00 -0.00000000000E+00  0.11368683772E-12  0.17120000000E+03  0.17120000000E+03 0.  0.
         13    1    1    2    0    0  0.53552166476E+02  0.90651072370E+02  0.46173905046E+03  0.47359097683E+03  0.10566000000E+00 0. -1.
        994    1    1    2    0    0 -0.58565240198E+02 -0.85118494864E+02  0.45889721756E+02  0.20515933342E+03  0.17120000000E+03 0.  0.
        998    1    1    2    0    0  0.50130737219E+01 -0.55325775057E+01  0.99237122406E+03  0.99244968974E+03  0.10000000000E+02 0. -1.
</event>
<event>
 5    1  0.9130022E-009  0.3817685E+03  0.7957747E-01  0.3443494E+00
         13   -1    0    0    0    0  0.00000000000E+00  0.00000000000E+00  0.14999999963E+04  0.15000000000E+04  0.10566000000E+00 0.  1.
        994   -1    0    0    0    0 -0.00000000000E+00 -0.00000000000E+00  0.11368683772E-12  0.17120000000E+03  0.17120000000E+03 0.  0.
         13    1    1    2    0    0 -0.27615413956E+02 -0.19321809964E+02  0.14872833418E+03  0.15249941633E+03  0.10566000000E+00 0.  1.
        994    1    1    2    0    0  0.38105963241E+02  0.20309735584E+02  0.94647904279E+01  0.17681507869E+03  0.17120000000E+03 0.  0.
        998    1    1    2    0    0 -0.10490549285E+02 -0.98792562035E+00  0.13418068717E+04  0.13418855050E+04  0.10000000000E+02 0.  1.
</event>
<event>
 5    1  0.9130022E-009  0.3736855E+03  0.7957747E-01  0.3479122E+00
         13   -1    0    0    0    0  0.00000000000E+00  0.00000000000E+00  0.14999999963E+04  0.15000000000E+04  0.10566000000E+00 0. -1.
        994   -1    0    0    0    0 -0.00000000000E+00 -0.00000000000E+00  0.11368683772E-12  0.17120000000E+03  0.17120000000E+03 0.  0.
         13    1    1    2    0    0  0.93739202625E+02 -0.52985884871E+02  0.56192150558E+03  0.57214537637E+03  0.10566000000E+00 0. -1.
        994    1    1    2    0    0 -0.10733871913E+03  0.10833951696E+02  0.48199934446E+02  0.20801838576E+03  0.17120000000E+03 0.  0.
        998    1    1    2    0    0  0.13599516503E+02  0.42151933175E+02  0.88987855625E+03  0.89103623787E+03  0.10000000000E+02 0. -1.
</event>
<event>
 5    1  0.9130022E-009  0.3824137E+03  0.7957747E-01  0.3440716E+00
         13   -1    0    0    0    0  0.00000000000E+00  0.00000000000E+00  0.14999999963E+04  0.15000000000E+04  0.10566000000E+00 0.  1.
        994   -1    0    0    0    0 -0.00000000000E+00 -0.00000000000E+00  0.11368683772E-12  0.17120000000E+03  0.17120000000E+03 0.  0.
         13    1    1    2    0    0 -0.11672555286E+02 -0.21538514948E+02  0.11500464902E+03  0.11758501874E+03  0.10566000000E+00 0.  1.
        994    1    1    2    0    0  0.15399643445E+02 -0.11722132334E+02  0.41628448813E+01  0.17234072845E+03  0.17120000000E+03 0.  0.
        998    1    1    2    0    0 -0.37270881590E+01  0.33260647282E+02  0.13808325024E+04  0.13812742528E+04  0.10000000000E+02 0.  1.
</event>
<event>
 5    1  0.9130022E-009  0.3907783E+03  0.7957747E-01  0.3405529E+00
         13   -1    0    0    0    0  0.00000000000E+00  0.00000000000E+00  0.14999999963E+04  0.15000000000E+04  0.10566000000E+00 0. -1.
        994   -1    0    0    0    0 -0.00000000000E+00 -0.00000000000E+00  0.11368683772E-12  0.17120000000E+03  0.17120000000E+03 0.  0.
         13    1    1    2    0    0 -0.60330327546E+02  0.43823427346E+02  0.10854214802E+03  0.13168769976E+03  0.10566000000E+00 0. -1.
        994    1    1    2    0    0  0.48678291431E+02 -0.61726173325E+02  0.46095350161E+02  0.19394307886E+03  0.17120000000E+03 0.  0.
        998    1    1    2    0    0  0.11652036115E+02  0.17902745979E+02  0.13453624981E+04  0.13455692214E+04  0.10000000000E+02 0. -1.
</event>
<event>
 5    1  0.9130022E-009  0.3789212E+03  0.7957747E-01  0.3455869E+00
         13   -1    0    0    0    0  0.00000000000E+00  0.00000000000E+00  0.14999999963E+04  0.15000000000E+04  0.10566000000E+00 0.  1.
        994   -1    0    0    0    0 -0.00000000000E+00 -0.00000000000E+00  0.11368683772E-12  0.17120000000E+03  0.17120000000E+03 0.  0.
         13    1    1    2    0    0 -0.20443592115E+02 -0.45154512054E+02  0.21529387979E+03  0.22092608777E+03  0.10566000000E+00 0.  1.
        994    1    1    2    0    0  0.30828013430E+02  0.47230532863E+02  0.15425940013E+02  0.18091016907E+03  0.17120000000E+03 0.  0.
        998    1    1    2    0    0 -0.10384421315E+02 -0.20760208092E+01  0.12692801765E+04  0.12693637432E+04  0.10000000000E+02 0.  1.
</event>
<event>
 5    1  0.9130022E-009  0.3730333E+03  0.7957747E-01  0.3482065E+00
         13   -1    0    0    0    0  0.00000000000E+00  0.00000000000E+00  0.14999999963E+04  0.15000000000E+04  0.10566000000E+00 0. -1.
        994   -1    0    0    0    0 -0.00000000000E+00 -0.00000000000E+00  0.11368683772E-12  0.17120000000E+03  0.17120000000E+03 0.  0.
         13    1    1    2    0    0 -0.49905019392E+00 -0.18668352468E+02  0.19137458213E+02  0.26739669143E+02  0.10566000000E+00 0. -1.
        994    1    1    2    0    0 -0.20554740333E+01  0.18302896110E+02  0.88537785059E+01  0.17241534263E+03  0.17120000000E+03 0.  0.
        998    1    1    2    0    0  0.25545242272E+01  0.36545635775E+00  0.14720087596E+04  0.14720449882E+04  0.10000000000E+02 0. -1.
</event>
<event>
 5    1  0.9130022E-009  0.3856765E+03  0.7957747E-01  0.3426808E+00
         13   -1    0    0    0    0  0.00000000000E+00  0.00000000000E+00  0.14999999963E+04  0.15000000000E+04  0.10566000000E+00 0. -1.
        994   -1    0    0    0    0 -0.00000000000E+00 -0.00000000000E+00  0.11368683772E-12  0.17120000000E+03  0.17120000000E+03 0.  0.
         13    1    1    2    0    0  0.91992665726E+01 -0.14851769030E+02  0.10449676923E+03  0.10594709761E+03  0.10566000000E+00 0. -1.
        994    1    1    2    0    0 -0.18035882234E+02  0.18968006988E+02  0.35459309168E+01  0.17322555228E+03  0.17120000000E+03 0.  0.
        998    1    1    2    0    0  0.88366156611E+01 -0.41162379580E+01  0.13919572961E+04  0.13920273501E+04  0.10000000000E+02 0. -1.
</event>
<event>
 5    1  0.9130022E-009  0.3746089E+03  0.7957747E-01  0.3474974E+00
         13   -1    0    0    0    0  0.00000000000E+00  0.00000000000E+00  0.14999999963E+04  0.15000000000E+04  0.10566000000E+00 0. -1.
        994   -1    0    0    0    0 -0.00000000000E+00 -0.00000000000E+00  0.11368683772E-12  0.17120000000E+03  0.17120000000E+03 0.  0.
         13    1    1    2    0    0  0.23522092091E+02  0.13332227182E+02  0.21303841260E+02  0.34422404251E+02  0.10566000000E+00 0. -1.
        994    1    1    2    0    0 -0.57138100240E+01 -0.43143573902E+02  0.20157549369E+02  0.17779140134E+03  0.17120000000E+03 0.  0.
        998    1    1    2    0    0 -0.17808282067E+02  0.29811346720E+02  0.14585386056E+04  0.14589861944E+04  0.10000000000E+02 0. -1.
</event>
<event>
 5    1  0.9130022E-009  0.3751087E+03  0.7957747E-01  0.3472737E+00
         13   -1    0    0    0    0  0.00000000000E+00  0.00000000000E+00  0.14999999963E+04  0.15000000000E+04  0.10566000000E+00 0. -1.
        994   -1    0    0    0    0 -0.00000000000E+00 -0.00000000000E+00  0.11368683772E-12  0.17120000000E+03  0.17120000000E+03 0.  0.
         13    1    1    2    0    0  0.40302062930E+02 -0.47163530299E+02  0.30893577270E+03  0.31510312230E+03  0.10566000000E+00 0. -1.
        994    1    1    2    0    0 -0.15523279771E+02  0.21712735736E+02  0.90474367293E+01  0.17350421096E+03  0.17120000000E+03 0.  0.
        998    1    1    2    0    0 -0.24778783159E+02  0.25450794563E+02  0.11820167869E+04  0.11825926667E+04  0.10000000000E+02 0.  0.
</event>
<event>
 5    1  0.9130022E-009  0.3796631E+03  0.7957747E-01  0.3452627E+00
         13   -1    0    0    0    0  0.00000000000E+00  0.00000000000E+00  0.14999999963E+04  0.15000000000E+04  0.10566000000E+00 0.  1.
        994   -1    0    0    0    0 -0.00000000000E+00 -0.00000000000E+00  0.11368683772E-12  0.17120000000E+03  0.17120000000E+03 0.  0.
         13    1    1    2    0    0  0.15081414887E+01 -0.51364947843E+02  0.23254697508E+03  0.23815696325E+03  0.10566000000E+00 0.  1.
        994    1    1    2    0    0 -0.23102236824E+02  0.65395399839E+02  0.20573381076E+02  0.18585740683E+03  0.17120000000E+03 0.  0.
        998    1    1    2    0    0  0.21594095335E+02 -0.14030451995E+02  0.12468796401E+04  0.12471856299E+04  0.10000000000E+02 0.  1.
</event>
<event>
 5    1  0.9130022E-009  0.3816835E+03  0.7957747E-01  0.3443861E+00
         13   -1    0    0    0    0  0.00000000000E+00  0.00000000000E+00  0.14999999963E+04  0.15000000000E+04  0.10566000000E+00 0.  1.
        994   -1    0    0    0    0 -0.00000000000E+00 -0.00000000000E+00  0.11368683772E-12  0.17120000000E+03  0.17120000000E+03 0.  0.
         13    1    1    2    0    0  0.17818733589E+02  0.11723229348E+02  0.65223738837E+02  0.68622799746E+02  0.10566000000E+00 0.  1.
        994    1    1    2    0    0 -0.31598914334E+02  0.56134338571E+01  0.67174683175E+01  0.17431169326E+03  0.17120000000E+03 0.  0.
        998    1    1    2    0    0  0.13780180744E+02 -0.17336663206E+02  0.14280587891E+04  0.14282655070E+04  0.10000000000E+02 0.  1.
</event>
<event>
 5    1  0.9130022E-009  0.3843247E+03  0.7957747E-01  0.3432541E+00
         13   -1    0    0    0    0  0.00000000000E+00  0.00000000000E+00  0.14999999963E+04  0.15000000000E+04  0.10566000000E+00 0. -1.
        994   -1    0    0    0    0 -0.00000000000E+00 -0.00000000000E+00  0.11368683772E-12  0.17120000000E+03  0.17120000000E+03 0.  0.
         13    1    1    2    0    0 -0.16077659056E+02 -0.28941795386E+01  0.66824772555E+02  0.68792650676E+02  0.10566000000E+00 0. -1.
        994    1    1    2    0    0  0.12788272593E+02 -0.90388356006E-01  0.25049790479E+01  0.17169526204E+03  0.17120000000E+03 0.  0.
        998    1    1    2    0    0  0.32893864631E+01  0.29845678946E+01  0.14306702447E+04  0.14307120873E+04  0.10000000000E+02 0. -1.
</event>
<event>
 5    1  0.9130022E-009  0.3703009E+03  0.7957747E-01  0.3494509E+00
         13   -1    0    0    0    0  0.00000000000E+00  0.00000000000E+00  0.14999999963E+04  0.15000000000E+04  0.10566000000E+00 0.  1.
        994   -1    0    0    0    0 -0.00000000000E+00 -0.00000000000E+00  0.11368683772E-12  0.17120000000E+03  0.17120000000E+03 0.  0.
         13    1    1    2    0    0  0.64561664725E+01 -0.90489236441E+01  0.25323904558E+01  0.11401283704E+02  0.10566000000E+00 0.  1.
        994    1    1    2    0    0 -0.43231591789E+01  0.88710223886E+01  0.94483028426E+01  0.17174427260E+03  0.17120000000E+03 0.  0.
        998    1    1    2    0    0 -0.21330072936E+01  0.17790125551E+00  0.14880193030E+04  0.14880544437E+04  0.10000000000E+02 0.  1.
</event>
<event>
 5    1  0.9130022E-009  0.3793394E+03  0.7957747E-01  0.3454040E+00
         13   -1    0    0    0    0  0.00000000000E+00  0.00000000000E+00  0.14999999963E+04  0.15000000000E+04  0.10566000000E+00 0.  1.
        994   -1    0    0    0    0 -0.00000000000E+00 -0.00000000000E+00  0.11368683772E-12  0.17120000000E+03  0.17120000000E+03 0.  0.
         13    1    1    2    0    0  0.99774389520E+02  0.75667191441E+02  0.38337368296E+03  0.40330614255E+03  0.10566000000E+00 0.  1.
        994    1    1    2    0    0 -0.90964889317E+02 -0.66043490608E+02  0.63195702762E+02  0.21433499618E+03  0.17120000000E+03 0.  0.
        998    1    1    2    0    0 -0.88095002028E+01 -0.96237008332E+01  0.10534306106E+04  0.10535588613E+04  0.10000000000E+02 0.  1.
</event>
<event>
 5    1  0.9130022E-009  0.3814404E+03  0.7957747E-01  0.3444911E+00
         13   -1    0    0    0    0  0.00000000000E+00  0.00000000000E+00  0.14999999963E+04  0.15000000000E+04  0.10566000000E+00 0. -1.
        994   -1    0    0    0    0 -0.00000000000E+00 -0.00000000000E+00  0.11368683772E-12  0.17120000000E+03  0.17120000000E+03 0.  0.
         13    1    1    2    0    0 -0.21938361216E+01 -0.46910123836E+02  0.24949543906E+03  0.25387665885E+03  0.10566000000E+00 0. -1.
        994    1    1    2    0    0  0.94815722398E+01  0.55854150122E+02  0.14160972166E+02  0.18088548706E+03  0.17120000000E+03 0.  0.
        998    1    1    2    0    0 -0.72877361182E+01 -0.89440262860E+01  0.12363435851E+04  0.12364378541E+04  0.10000000000E+02 0. -1.
</event>
<event>
 5    1  0.9130022E-009  0.3798560E+03  0.7957747E-01  0.3451786E+00
         13   -1    0    0    0    0  0.00000000000E+00  0.00000000000E+00  0.14999999963E+04  0.15000000000E+04  0.10566000000E+00 0.  1.
        994   -1    0    0    0    0 -0.00000000000E+00 -0.00000000000E+00  0.11368683772E-12  0.17120000000E+03  0.17120000000E+03 0.  0.
         13    1    1    2    0    0 -0.72125819699E+00  0.10915411199E+02  0.12301614879E+02  0.16462299587E+02  0.10566000000E+00 0.  1.
        994    1    1    2    0    0  0.11955625422E+01 -0.10776079362E+02  0.45990941875E+01  0.17160461801E+03  0.17120000000E+03 0.  0.
        998    1    1    2    0    0 -0.47430434521E+00 -0.13933183651E+00  0.14830992872E+04  0.14831330824E+04  0.10000000000E+02 0.  1.
</event>
<event>
 5    1  0.9130022E-009  0.3803672E+03  0.7957747E-01  0.3449561E+00
         13   -1    0    0    0    0  0.00000000000E+00  0.00000000000E+00  0.14999999963E+04  0.15000000000E+04  0.10566000000E+00 0. -1.
        994   -1    0    0    0    0 -0.00000000000E+00 -0.00000000000E+00  0.11368683772E-12  0.17120000000E+03  0.17120000000E+03 0.  0.
         13    1    1    2    0    0 -0.32619720058E+01  0.10313006834E+02  0.12581251144E+02  0.16592094977E+02  0.10566000000E+00 0. -1.
        994    1    1    2    0    0  0.55313666626E+01 -0.23915849764E+02  0.59623928259E+01  0.17305361601E+03  0.17120000000E+03 0.  0.
        998    1    1    2    0    0 -0.22693946568E+01  0.13602842930E+02  0.14814563523E+04  0.14815542890E+04  0.10000000000E+02 0. -1.
</event>
<event>
 5    1  0.9130022E-009  0.3721940E+03  0.7957747E-01  0.3485868E+00
         13   -1    0    0    0    0  0.00000000000E+00  0.00000000000E+00  0.14999999963E+04  0.15000000000E+04  0.10566000000E+00 0.  1.
        994   -1    0    0    0    0 -0.00000000000E+00 -0.00000000000E+00  0.11368683772E-12  0.17120000000E+03  0.17120000000E+03 0.  0.
         13    1    1    2    0    0  0.17146033286E+02 -0.37677427219E+02  0.10116346831E+03  0.10930523072E+03  0.10566000000E+00 0.  1.
        994    1    1    2    0    0 -0.14477810108E+02  0.25383630315E+02  0.11062853363E+02  0.17402805061E+03  0.17120000000E+03 0.  0.
        998    1    1    2    0    0 -0.26682231782E+01  0.12293796904E+02  0.13877736746E+04  0.13878667187E+04  0.10000000000E+02 0.  1.
</event>
<event>
 5    1  0.9130022E-009  0.3806429E+03  0.7957747E-01  0.3448364E+00
         13   -1    0    0    0    0  0.00000000000E+00  0.00000000000E+00  0.14999999963E+04  0.15000000000E+04  0.10566000000E+00 0. -1.
        994   -1    0    0    0    0 -0.00000000000E+00 -0.00000000000E+00  0.11368683772E-12  0.17120000000E+03  0.17120000000E+03 0.  0.
         13    1    1    2    0    0 -0.13498545934E+02  0.77386739273E+01  0.29743658794E+02  0.33567755644E+02  0.10566000000E+00 0. -1.
        994    1    1    2    0    0  0.13491718129E+02 -0.94166063328E+01  0.47124950082E+01  0.17205332471E+03  0.17120000000E+03 0.  0.
        998    1    1    2    0    0  0.68278054217E-02  0.16779324055E+01  0.14655438425E+04  0.14655789197E+04  0.10000000000E+02 0. -1.
</event>
<event>
 5    1  0.9130022E-009  0.3832431E+03  0.7957747E-01  0.3437158E+00
         13   -1    0    0    0    0  0.00000000000E+00  0.00000000000E+00  0.14999999963E+04  0.15000000000E+04  0.10566000000E+00 0.  1.
        994   -1    0    0    0    0 -0.00000000000E+00 -0.00000000000E+00  0.11368683772E-12  0.17120000000E+03  0.17120000000E+03 0.  0.
         13    1    1    2    0    0 -0.17131195920E+02 -0.13786346494E+02  0.10356927976E+03  0.10587798684E+03  0.10566000000E+00 0.  1.
        994    1    1    2    0    0 -0.92573572248E+01  0.15335929385E+02  0.35669852257E+01  0.17217157947E+03  0.17120000000E+03 0.  0.
        998    1    1    2    0    0  0.26388553145E+02 -0.15495828908E+01  0.13928637313E+04  0.13931504337E+04  0.10000000000E+02 0.  1.
</event>
<event>
 5    1  0.9130022E-009  0.3794734E+03  0.7957747E-01  0.3453455E+00
         13   -1    0    0    0    0  0.00000000000E+00  0.00000000000E+00  0.14999999963E+04  0.15000000000E+04  0.10566000000E+00 0.  1.
        994   -1    0    0    0    0 -0.00000000000E+00 -0.00000000000E+00  0.11368683772E-12  0.17120000000E+03  0.17120000000E+03 0.  0.
         13    1    1    2    0    0  0.36590591282E+02 -0.14106198676E+01  0.14146863331E+03  0.14613092278E+03  0.10566000000E+00 0.  1.
        994    1    1    2    0    0 -0.32810659131E+02 -0.62497441950E+01  0.81440966617E+01  0.17461776818E+03  0.17120000000E+03 0.  0.
        998    1    1    2    0    0 -0.37799321511E+01  0.76603640626E+01  0.13503872663E+04  0.13504513090E+04  0.10000000000E+02 0.  1.
</event>
<event>
 5    1  0.9130022E-009  0.3808669E+03  0.7957747E-01  0.3447392E+00
         13   -1    0    0    0    0  0.00000000000E+00  0.00000000000E+00  0.14999999963E+04  0.15000000000E+04  0.10566000000E+00 0. -1.
        994   -1    0    0    0    0 -0.00000000000E+00 -0.00000000000E+00  0.11368683772E-12  0.17120000000E+03  0.17120000000E+03 0.  0.
         13    1    1    2    0    0 -0.23129801894E+02 -0.11112579170E+02  0.83007036889E+02  0.86883004602E+02  0.10566000000E+00 0. -1.
        994    1    1    2    0    0  0.24469881053E+02  0.12263654670E+02  0.61974394677E+01  0.17348492891E+03  0.17120000000E+03 0.  0.
        998    1    1    2    0    0 -0.13400791599E+01 -0.11510754997E+01  0.14107955199E+04  0.14108320665E+04  0.10000000000E+02 0. -1.
</event>
<event>
 5    1  0.9130022E-009  0.3792957E+03  0.7957747E-01  0.3454231E+00
         13   -1    0    0    0    0  0.00000000000E+00  0.00000000000E+00  0.14999999963E+04  0.15000000000E+04  0.10566000000E+00 0. -1.
        994   -1    0    0    0    0 -0.00000000000E+00 -0.00000000000E+00  0.11368683772E-12  0.17120000000E+03  0.17120000000E+03 0.  0.
         13    1    1    2    0    0  0.32676286360E+02 -0.65867793319E+02  0.44363076663E+03  0.44968274834E+03  0.10566000000E+00 0. -1.
        994    1    1    2    0    0 -0.29674660034E+02  0.62909552715E+02  0.20874968855E+02  0.18596613024E+03  0.17120000000E+03 0.  0.
        998    1    1    2    0    0 -0.30016263257E+01  0.29582406040E+01  0.10354942608E+04  0.10355511214E+04  0.10000000000E+02 0. -1.
</event>
<event>
 5    1  0.9130022E-009  0.3859989E+03  0.7957747E-01  0.3425447E+00
         13   -1    0    0    0    0  0.00000000000E+00  0.00000000000E+00  0.14999999963E+04  0.15000000000E+04  0.10566000000E+00 0.  1.
        994   -1    0    0    0    0 -0.00000000000E+00 -0.00000000000E+00  0.11368683772E-12  0.17120000000E+03  0.17120000000E+03 0.  0.
         13    1    1    2    0    0 -0.11063742999E+02  0.71294271929E+01  0.75252043860E+02  0.76394478926E+02  0.10566000000E+00 0.  1.
        994    1    1    2    0    0  0.12212770653E+02 -0.29245245024E+01  0.16521600072E+01  0.17166791850E+03  0.17120000000E+03 0.  0.
        998    1    1    2    0    0 -0.11490276547E+01 -0.42049026904E+01  0.14230957924E+04  0.14231376026E+04  0.10000000000E+02 0.  1.
</event>
<event>
 5    1  0.9130022E-009  0.3835547E+03  0.7957747E-01  0.3435825E+00
         13   -1    0    0    0    0  0.00000000000E+00  0.00000000000E+00  0.14999999963E+04  0.15000000000E+04  0.10566000000E+00 0. -1.
        994   -1    0    0    0    0 -0.00000000000E+00 -0.00000000000E+00  0.11368683772E-12  0.17120000000E+03  0.17120000000E+03 0.  0.
         13    1    1    2    0    0 -0.18306649573E+02 -0.17968604514E+01  0.69230894585E+02  0.71633023496E+02  0.10566000000E+00 0. -1.
        994    1    1    2    0    0  0.17058935993E+02  0.58446161066E+01  0.34245486718E+01  0.17218110921E+03  0.17120000000E+03 0.  0.
        998    1    1    2    0    0  0.12477135794E+01 -0.40477556552E+01  0.14273445530E+04  0.14273858673E+04  0.10000000000E+02 0. -1.
</event>
<event>
 5    1  0.9130022E-009  0.3845246E+03  0.7957747E-01  0.3431691E+00
         13   -1    0    0    0    0  0.00000000000E+00  0.00000000000E+00  0.14999999963E+04  0.15000000000E+04  0.10566000000E+00 0. -1.
        994   -1    0    0    0    0 -0.00000000000E+00 -0.00000000000E+00  0.11368683772E-12  0.17120000000E+03  0.17120000000E+03 0.  0.
         13    1    1    2    0    0  0.94392083424E+01 -0.13897629442E+02  0.74154256301E+02  0.76033595534E+02  0.10566000000E+00 0. -1.
        994    1    1    2    0    0  0.14175797998E+02  0.27063679916E+02  0.49467470334E+01  0.17397501638E+03  0.17120000000E+03 0.  0.
        998    1    1    2    0    0 -0.23615006341E+02 -0.13166050474E+02  0.14208989929E+04  0.14211913881E+04  0.10000000000E+02 0. -1.
</event>
<event>
 5    1  0.9130022E-009  0.3709164E+03  0.7957747E-01  0.3491690E+00
         13   -1    0    0    0    0  0.00000000000E+00  0.00000000000E+00  0.14999999963E+04  0.15000000000E+04  0.10566000000E+00 0.  1.
        994   -1    0    0    0    0 -0.00000000000E+00 -0.00000000000E+00  0.11368683772E-12  0.17120000000E+03  0.17120000000E+03 0.  0.
         13    1    1    2    0    0  0.19072702404E+02 -0.11297819027E+02  0.16448325415E+02  0.27603754541E+02  0.10566000000E+00 0.  1.
        994    1    1    2    0    0 -0.17512303523E+02  0.10136915079E+02  0.12861454642E+02  0.17287074604E+03  0.17120000000E+03 0.  0.
        998    1    1    2    0    0 -0.15603988813E+01  0.11609039477E+01  0.14706902162E+04  0.14707254994E+04  0.10000000000E+02 0.  1.
</event>
<event>
 5    1  0.9130022E-009  0.3810381E+03  0.7957747E-01  0.3446651E+00
         13   -1    0    0    0    0  0.00000000000E+00  0.00000000000E+00  0.14999999963E+04  0.15000000000E+04  0.10566000000E+00 0. -1.
        994   -1    0    0    0    0 -0.00000000000E+00 -0.00000000000E+00  0.11368683772E-12  0.17120000000E+03  0.17120000000E+03 0.  0.
         13    1    1    2    0    0 -0.36272583762E+01  0.13419487287E+02  0.25369837534E+02  0.28928869023E+02  0.10566000000E+00 0. -1.
        994    1    1    2    0    0  0.24961091931E+01 -0.88184925682E+01  0.38899199478E+01  0.17148926453E+03  0.17120000000E+03 0.  0.
        998    1    1    2    0    0  0.11311491831E+01 -0.46009947192E+01  0.14707402388E+04  0.14707818664E+04  0.10000000000E+02 0. -1.
</event>
<event>
 5    1  0.9130022E-009  0.3844152E+03  0.7957747E-01  0.3432156E+00
         13   -1    0    0    0    0  0.00000000000E+00  0.00000000000E+00  0.14999999963E+04  0.15000000000E+04  0.10566000000E+00 0.  1.
        994   -1    0    0    0    0 -0.00000000000E+00 -0.00000000000E+00  0.11368683772E-12  0.17120000000E+03  0.17120000000E+03 0.  0.
         13    1    1    2    0    0 -0.33896580916E+01  0.15893371298E+02  0.76283059395E+02  0.77994905909E+02  0.10566000000E+00 0.  1.
        994    1    1    2    0    0 -0.16195923464E+02  0.24709644633E+01  0.28056732363E+01  0.17200501564E+03  0.17120000000E+03 0.  0.
        998    1    1    2    0    0  0.19585581556E+02 -0.18364335761E+02  0.14209112636E+04  0.14212000785E+04  0.10000000000E+02 0.  1.
</event>
<event>
 5    1  0.9130022E-009  0.3831220E+03  0.7957747E-01  0.3437676E+00
         13   -1    0    0    0    0  0.00000000000E+00  0.00000000000E+00  0.14999999963E+04  0.15000000000E+04  0.10566000000E+00 0.  1.
        994   -1    0    0    0    0 -0.00000000000E+00 -0.00000000000E+00  0.11368683772E-12  0.17120000000E+03  0.17120000000E+03 0.  0.
         13    1    1    2    0    0  0.14876020925E+02  0.57854821631E+01  0.48168433369E+02  0.50744230605E+02  0.10566000000E+00 0.  1.
        994    1    1    2    0    0 -0.13025838661E+02 -0.48769812055E+01  0.32057630079E+01  0.17179398806E+03  0.17120000000E+03 0.  0.
        998    1    1    2    0    0 -0.18501822645E+01 -0.90850095758E+00  0.14486257999E+04  0.14486617813E+04  0.10000000000E+02 0.  1.
</event>
<event>
 5    1  0.9130022E-009  0.3845436E+03  0.7957747E-01  0.3431610E+00
         13   -1    0    0    0    0  0.00000000000E+00  0.00000000000E+00  0.14999999963E+04  0.15000000000E+04  0.10566000000E+00 0.  1.
        994   -1    0    0    0    0 -0.00000000000E+00 -0.00000000000E+00  0.11368683772E-12  0.17120000000E+03  0.17120000000E+03 0.  0.
         13    1    1    2    0    0 -0.14970486118E+02  0.56980060448E+01  0.75543624353E+02  0.77223267685E+02  0.10566000000E+00 0.  1.
        994    1    1    2    0    0  0.25402556766E+01  0.16161541365E+02  0.27388892645E+01  0.17200171462E+03  0.17120000000E+03 0.  0.
        998    1    1    2    0    0  0.12430230441E+02 -0.21859547410E+02  0.14217174827E+04  0.14219750177E+04  0.10000000000E+02 0.  1.
</event>
<event>
 5    1  0.9130022E-009  0.3737751E+03  0.7957747E-01  0.3478719E+00
         13   -1    0    0    0    0  0.00000000000E+00  0.00000000000E+00  0.14999999963E+04  0.15000000000E+04  0.10566000000E+00 0. -1.
        994   -1    0    0    0    0 -0.00000000000E+00 -0.00000000000E+00  0.11368683772E-12  0.17120000000E+03  0.17120000000E+03 0.  0.
         13    1    1    2    0    0  0.26630934998E+03  0.17385504510E+01  0.10955502436E+04  0.11274546731E+04  0.10566000000E+00 0. -1.
        994    1    1    2    0    0 -0.26048802523E+03 -0.86250150894E+01  0.28160776247E+03  0.42016755474E+03  0.17120000000E+03 0.  0.
        998    1    1    2    0    0 -0.58213247556E+01  0.68864646383E+01  0.12284199023E+03  0.12357777220E+03  0.10000000000E+02 0.  0.
</event>
<event>
 5    1  0.9130022E-009  0.3773037E+03  0.7957747E-01  0.3462983E+00
         13   -1    0    0    0    0  0.00000000000E+00  0.00000000000E+00  0.14999999963E+04  0.15000000000E+04  0.10566000000E+00 0. -1.
        994   -1    0    0    0    0 -0.00000000000E+00 -0.00000000000E+00  0.11368683772E-12  0.17120000000E+03  0.17120000000E+03 0.  0.
         13    1    1    2    0    0  0.39505763392E+02 -0.10857071351E+03  0.33662067258E+03  0.35589576219E+03  0.10566000000E+00 0. -1.
        994    1    1    2    0    0 -0.57701773851E+02  0.10254316946E+03  0.66367701673E+02  0.21807959128E+03  0.17120000000E+03 0.  0.
        998    1    1    2    0    0  0.18196010459E+02  0.60275440478E+01  0.10970116220E+04  0.10972246465E+04  0.10000000000E+02 0. -1.
</event>
<event>
 5    1  0.9130022E-009  0.3845691E+03  0.7957747E-01  0.3431502E+00
         13   -1    0    0    0    0  0.00000000000E+00  0.00000000000E+00  0.14999999963E+04  0.15000000000E+04  0.10566000000E+00 0.  1.
        994   -1    0    0    0    0 -0.00000000000E+00 -0.00000000000E+00  0.11368683772E-12  0.17120000000E+03  0.17120000000E+03 0.  0.
         13    1    1    2    0    0  0.94878223129E+01 -0.98988227144E+01  0.50617961543E+02  0.52442298369E+02  0.10566000000E+00 0.  1.
        994    1    1    2    0    0 -0.12009732809E+02  0.17558102297E+01  0.23295100957E+01  0.17164551602E+03  0.17120000000E+03 0.  0.
        998    1    1    2    0    0  0.25219104964E+01  0.81430124848E+01  0.14470525246E+04  0.14471121856E+04  0.10000000000E+02 0.  1.
</event>
<event>
 5    1  0.9130022E-009  0.3720005E+03  0.7957747E-01  0.3486747E+00
         13   -1    0    0    0    0  0.00000000000E+00  0.00000000000E+00  0.14999999963E+04  0.15000000000E+04  0.10566000000E+00 0.  1.
        994   -1    0    0    0    0 -0.00000000000E+00 -0.00000000000E+00  0.11368683772E-12  0.17120000000E+03  0.17120000000E+03 0.  0.
         13    1    1    2    0    0  0.31547883576E+02  0.65662492099E+01  0.58045400500E+02  0.66390242280E+02  0.10566000000E+00 0.  1.
        994    1    1    2    0    0 -0.32298306885E+02  0.51832328526E+00  0.11818769458E+02  0.17462122608E+03  0.17120000000E+03 0.  0.
        998    1    1    2    0    0  0.75042330933E+00 -0.70845724952E+01  0.14301358263E+04  0.14301885316E+04  0.10000000000E+02 0.  1.
</event>
<event>
 5    1  0.9130022E-009  0.3792736E+03  0.7957747E-01  0.3454328E+00
         13   -1    0    0    0    0  0.00000000000E+00  0.00000000000E+00  0.14999999963E+04  0.15000000000E+04  0.10566000000E+00 0.  1.
        994   -1    0    0    0    0 -0.00000000000E+00 -0.00000000000E+00  0.11368683772E-12  0.17120000000E+03  0.17120000000E+03 0.  0.
         13    1    1    2    0    0  0.39797572294E+02  0.16304080041E+02  0.22875465946E+03  0.23276248662E+03  0.10566000000E+00 0.  1.
        994    1    1    2    0    0 -0.28011925827E+01 -0.21133983863E+02  0.60247606596E+01  0.17262743031E+03  0.17120000000E+03 0.  0.
        998    1    1    2    0    0 -0.36996379712E+02  0.48299038215E+01  0.12652205762E+04  0.12658100831E+04  0.10000000000E+02 0.  1.
</event>
<event>
 5    1  0.9130022E-009  0.3707170E+03  0.7957747E-01  0.3492602E+00
         13   -1    0    0    0    0  0.00000000000E+00  0.00000000000E+00  0.14999999963E+04  0.15000000000E+04  0.10566000000E+00 0. -1.
        994   -1    0    0    0    0 -0.00000000000E+00 -0.00000000000E+00  0.11368683772E-12  0.17120000000E+03  0.17120000000E+03 0.  0.
         13    1    1    2    0    0  0.10442687094E+02 -0.27614510757E+02  0.32798797185E+02  0.44129164720E+02  0.10566000000E+00 0. -1.
        994    1    1    2    0    0 -0.13901078830E+02  0.31628839373E+02  0.15513370830E+02  0.17533889514E+03  0.17120000000E+03 0.  0.
        998    1    1    2    0    0  0.34583917362E+01 -0.40143286164E+01  0.14516878283E+04  0.14517319401E+04  0.10000000000E+02 0. -1.
</event>
<event>
 5    1  0.9130022E-009  0.3845076E+03  0.7957747E-01  0.3431763E+00
         13   -1    0    0    0    0  0.00000000000E+00  0.00000000000E+00  0.14999999963E+04  0.15000000000E+04  0.10566000000E+00 0.  1.
        994   -1    0    0    0    0 -0.00000000000E+00 -0.00000000000E+00  0.11368683772E-12  0.17120000000E+03  0.17120000000E+03 0.  0.
         13    1    1    2    0    0 -0.88334189188E+01 -0.13422235058E+02  0.65907890328E+02  0.67838387771E+02  0.10566000000E+00 0.  1.
        994    1    1    2    0    0  0.54161400538E+01  0.17219751878E+02  0.29488499929E+01  0.17217430164E+03  0.17120000000E+03 0.  0.
        998    1    1    2    0    0  0.34172788651E+01 -0.37975168201E+01  0.14311432560E+04  0.14311873106E+04  0.10000000000E+02 0.  1.
</event>
<event>
 5    1  0.9130022E-009  0.3801057E+03  0.7957747E-01  0.3450698E+00
         13   -1    0    0    0    0  0.00000000000E+00  0.00000000000E+00  0.14999999963E+04  0.15000000000E+04  0.10566000000E+00 0. -1.
        994   -1    0    0    0    0 -0.00000000000E+00 -0.00000000000E+00  0.11368683772E-12  0.17120000000E+03  0.17120000000E+03 0.  0.
         13    1    1    2    0    0  0.43835764169E+02 -0.72443503251E+02  0.37428439507E+03  0.38374269366E+03  0.10566000000E+00 0. -1.
        994    1    1    2    0    0 -0.10460052065E+02 -0.47027153487E+02  0.24846652628E+02  0.17957661875E+03  0.17120000000E+03 0.  0.
        998    1    1    2    0    0 -0.33375712104E+02  0.11947065674E+03  0.11008689486E+04  0.11078806876E+04  0.10000000000E+02 0. -1.
</event>
<event>
 5    1  0.9130022E-009  0.3820383E+03  0.7957747E-01  0.3442331E+00
         13   -1    0    0    0    0  0.00000000000E+00  0.00000000000E+00  0.14999999963E+04  0.15000000000E+04  0.10566000000E+00 0. -1.
        994   -1    0    0    0    0 -0.00000000000E+00 -0.00000000000E+00  0.11368683772E-12  0.17120000000E+03  0.17120000000E+03 0.  0.
         13    1    1    2    0    0 -0.20069368364E+02 -0.20858627258E+01  0.67551080981E+02  0.70500284224E+02  0.10566000000E+00 0. -1.
        994    1    1    2    0    0  0.27106148097E+01  0.64988496507E+01  0.32724032229E+01  0.17137599337E+03  0.17120000000E+03 0.  0.
        998    1    1    2    0    0  0.17358753555E+02 -0.44129869249E+01  0.14291765121E+04  0.14293237224E+04  0.10000000000E+02 0. -1.
</event>
<event>
 5    1  0.9130022E-009  0.3833244E+03  0.7957747E-01  0.3436810E+00
         13   -1    0    0    0    0  0.00000000000E+00  0.00000000000E+00  0.14999999963E+04  0.15000000000E+04  0.10566000000E+00 0.  1.
        994   -1    0    0    0    0 -0.00000000000E+00 -0.00000000000E+00  0.11368683772E-12  0.17120000000E+03  0.17120000000E+03 0.  0.
         13    1    1    2    0    0  0.24013929599E+02  0.15138006857E+02  0.14063318737E+03  0.14346962264E+03  0.10566000000E+00 0.  1.
        994    1    1    2    0    0 -0.44708501021E+01 -0.71032386797E+02  0.19398433062E+02  0.18641707990E+03  0.17120000000E+03 0.  0.
        998    1    1    2    0    0 -0.19543079497E+02  0.55894379940E+02  0.13399683758E+04  0.13413132975E+04  0.10000000000E+02 0.  1.
</event>
<event>
 5    1  0.9130022E-009  0.3798405E+03  0.7957747E-01  0.3451853E+00
         13   -1    0    0    0    0  0.00000000000E+00  0.00000000000E+00  0.14999999963E+04  0.15000000000E+04  0.10566000000E+00 0.  1.
        994   -1    0    0    0    0 -0.00000000000E+00 -0.00000000000E+00  0.11368683772E-12  0.17120000000E+03  0.17120000000E+03 0.  0.
         13    1    1    2    0    0 -0.48272300798E+02 -0.15591331993E+02  0.25608293649E+03  0.26105897070E+03  0.10566000000E+00 0.  1.
        994    1    1    2    0    0  0.51782878684E+02  0.27515389641E+01  0.13260665107E+02  0.17937202327E+03  0.17120000000E+03 0.  0.
        998    1    1    2    0    0 -0.35105778856E+01  0.12839793029E+02  0.12306563947E+04  0.12307690060E+04  0.10000000000E+02 0.  1.
</event>
<event>
 5    1  0.9130022E-009  0.3850964E+03  0.7957747E-01  0.3429264E+00
         13   -1    0    0    0    0  0.00000000000E+00  0.00000000000E+00  0.14999999963E+04  0.15000000000E+04  0.10566000000E+00 0. -1.
        994   -1    0    0    0    0 -0.00000000000E+00 -0.00000000000E+00  0.11368683772E-12  0.17120000000E+03  0.17120000000E+03 0.  0.
         13    1    1    2    0    0  0.45212539169E+00 -0.11149323675E+02  0.39404282046E+02  0.40953881909E+02  0.10566000000E+00 0. -1.
        994    1    1    2    0    0 -0.20255260353E+01  0.67021809082E+01  0.17434777257E+01  0.17135198189E+03  0.17120000000E+03 0.  0.
        998    1    1    2    0    0  0.15734006436E+01  0.44471427665E+01  0.14588522365E+04  0.14588941362E+04  0.10000000000E+02 0. -1.
</event>
<event>
 5    1  0.9130022E-009  0.3799760E+03  0.7957747E-01  0.3451263E+00
         13   -1    0    0    0    0  0.00000000000E+00  0.00000000000E+00  0.14999999963E+04  0.15000000000E+04  0.10566000000E+00 0. -1.
        994   -1    0    0    0    0 -0.00000000000E+00 -0.00000000000E+00  0.11368683772E-12  0.17120000000E+03  0.17120000000E+03 0.  0.
         13    1    1    2    0    0  0.13757697514E+02  0.23740922170E+02  0.94046219446E+02  0.97967383259E+02  0.10566000000E+00 0. -1.
        994    1    1    2    0    0 -0.49415646371E+01 -0.48707236154E+01  0.43062204356E+01  0.17139465145E+03  0.17120000000E+03 0.  0.
        998    1    1    2    0    0 -0.88161328771E+01 -0.18870198555E+02  0.14016475564E+04  0.14018379653E+04  0.10000000000E+02 0. -1.
</event>
<event>
 5    1  0.9130022E-009  0.3700347E+03  0.7957747E-01  0.3495731E+00
         13   -1    0    0    0    0  0.00000000000E+00  0.00000000000E+00  0.14999999963E+04  0.15000000000E+04  0.10566000000E+00 0. -1.
        994   -1    0    0    0    0 -0.00000000000E+00 -0.00000000000E+00  0.11368683772E-12  0.17120000000E+03  0.17120000000E+03 0.  0.
         13    1    1    2    0    0 -0.56426183810E+02 -0.13012715185E+02  0.15437846810E+03  0.16488167743E+03  0.10566000000E+00 0. -1.
        994    1    1    2    0    0  0.72903111843E+02 -0.19477716893E+02  0.29203315629E+02  0.18935817599E+03  0.17120000000E+03 0.  0.
        998    1    1    2    0    0 -0.16476928033E+02  0.32490432078E+02  0.13164182125E+04  0.13169601466E+04  0.10000000000E+02 0. -1.
</event>
<event>
 5    1  0.9130022E-009  0.3977557E+03  0.7957747E-01  0.3377312E+00
         13   -1    0    0    0    0  0.00000000000E+00  0.00000000000E+00  0.14999999963E+04  0.15000000000E+04  0.10566000000E+00 0. -1.
        994   -1    0    0    0    0 -0.00000000000E+00 -0.00000000000E+00  0.11368683772E-12  0.17120000000E+03  0.17120000000E+03 0.  0.
         13    1    1    2    0    0 -0.45398498593E+02  0.61605509560E+02  0.95434038455E+02  0.12232714066E+03  0.10566000000E+00 0. -1.
        994    1    1    2    0    0  0.39625365832E+02 -0.68718821350E+02  0.51293401488E+02  0.19553234786E+03  0.17120000000E+03 0.  0.
        998    1    1    2    0    0  0.57731327610E+01  0.71133117901E+01  0.13532725563E+04  0.13533405115E+04  0.10000000000E+02 0. -1.
</event>
<event>
 5    1  0.9130022E-009  0.3759103E+03  0.7957747E-01  0.3469162E+00
         13   -1    0    0    0    0  0.00000000000E+00  0.00000000000E+00  0.14999999963E+04  0.15000000000E+04  0.10566000000E+00 0. -1.
        994   -1    0    0    0    0 -0.00000000000E+00 -0.00000000000E+00  0.11368683772E-12  0.17120000000E+03  0.17120000000E+03 0.  0.
         13    1    1    2    0    0  0.10631093719E+02  0.58235590320E+02  0.24458431707E+03  0.25164638573E+03  0.10566000000E+00 0. -1.
        994    1    1    2    0    0 -0.41479698764E+01 -0.54054707542E+02  0.16237894999E+02  0.18031147023E+03  0.17120000000E+03 0.  0.
        998    1    1    2    0    0 -0.64831238425E+01 -0.41808827778E+01  0.12391777842E+04  0.12392421440E+04  0.10000000000E+02 0. -1.
</event>
<event>
 5    1  0.9130022E-009  0.3804541E+03  0.7957747E-01  0.3449184E+00
         13   -1    0    0    0    0  0.00000000000E+00  0.00000000000E+00  0.14999999963E+04  0.15000000000E+04  0.10566000000E+00 0. -1.
        994   -1    0    0    0    0 -0.00000000000E+00 -0.00000000000E+00  0.11368683772E-12  0.17120000000E+03  0.17120000000E+03 0.  0.
         13    1    1    2    0    0  0.26827002117E+02  0.53681857587E+01  0.16287326923E+02  0.31840126307E+02  0.10566000000E+00 0. -1.
        994    1    1    2    0    0 -0.82835742344E+00 -0.12454079454E+02  0.17142692621E+02  0.17250826699E+03  0.17120000000E+03 0.  0.
        998    1    1    2    0    0 -0.25998644693E+02  0.70858936958E+01  0.14665699767E+04  0.14668516067E+04  0.10000000000E+02 0. -1.
</event>
<event>
 5    1  0.9130022E-009  0.3844139E+03  0.7957747E-01  0.3432162E+00
         13   -1    0    0    0    0  0.00000000000E+00  0.00000000000E+00  0.14999999963E+04  0.15000000000E+04  0.10566000000E+00 0. -1.
        994   -1    0    0    0    0 -0.00000000000E+00 -0.00000000000E+00  0.11368683772E-12  0.17120000000E+03  0.17120000000E+03 0.  0.
         13    1    1    2    0    0 -0.11839341778E+02 -0.82963457666E+00  0.35134024943E+02  0.37084621880E+02  0.10566000000E+00 0. -1.
        994    1    1    2    0    0  0.14604608315E+02  0.94187394816E+01  0.29171331569E+01  0.17210449414E+03  0.17120000000E+03 0.  0.
        998    1    1    2    0    0 -0.27652665372E+01 -0.85891049050E+01  0.14619488382E+04  0.14620108840E+04  0.10000000000E+02 0. -1.
</event>
<event>
 5    1  0.9130022E-009  0.3743572E+03  0.7957747E-01  0.3476103E+00
         13   -1    0    0    0    0  0.00000000000E+00  0.00000000000E+00  0.14999999963E+04  0.15000000000E+04  0.10566000000E+00 0. -1.
        994   -1    0    0    0    0 -0.00000000000E+00 -0.00000000000E+00  0.11368683772E-12  0.17120000000E+03  0.17120000000E+03 0.  0.
         13    1    1    2    0    0  0.10662037221E+01  0.13325848868E+02  0.95769784303E+01  0.16445203505E+02  0.10566000000E+00 0. -1.
        994    1    1    2    0    0 -0.27858655039E+00 -0.10560552479E+02  0.73894539925E+01  0.17168473115E+03  0.17120000000E+03 0.  0.
        998    1    1    2    0    0 -0.78761717171E+00 -0.27652963886E+01  0.14830335639E+04  0.14830700653E+04  0.10000000000E+02 0. -1.
</event>
<event>
 5    1  0.9130022E-009  0.3828288E+03  0.7957747E-01  0.3438933E+00
         13   -1    0    0    0    0  0.00000000000E+00  0.00000000000E+00  0.14999999963E+04  0.15000000000E+04  0.10566000000E+00 0. -1.
        994   -1    0    0    0    0 -0.00000000000E+00 -0.00000000000E+00  0.11368683772E-12  0.17120000000E+03  0.17120000000E+03 0.  0.
         13    1    1    2    0    0  0.12866394422E+02 -0.15420052829E+02  0.76179216277E+02  0.78782017563E+02  0.10566000000E+00 0. -1.
        994    1    1    2    0    0 -0.89755037758E+01  0.84431559152E+00  0.29811893679E+01  0.17146311565E+03  0.17120000000E+03 0.  0.
        998    1    1    2    0    0 -0.38908906458E+01  0.14575737238E+02  0.14208395906E+04  0.14209548668E+04  0.10000000000E+02 0. -1.
</event>
<event>
 5    1  0.9130022E-009  0.3685312E+03  0.7957747E-01  0.3502669E+00
         13   -1    0    0    0    0  0.00000000000E+00  0.00000000000E+00  0.14999999963E+04  0.15000000000E+04  0.10566000000E+00 0.  1.
        994   -1    0    0    0    0 -0.00000000000E+00 -0.00000000000E+00  0.11368683772E-12  0.17120000000E+03  0.17120000000E+03 0.  0.
         13    1    1    2    0    0  0.35932143131E+01 -0.31047671596E+02  0.42964678828E+02  0.53130442229E+02  0.10566000000E+00 0.  1.
        994    1    1    2    0    0 -0.57473042046E+01  0.30290944599E+02  0.13477580777E+02  0.17447537939E+03  0.17120000000E+03 0.  0.
        998    1    1    2    0    0  0.21540898915E+01  0.75672699701E+00  0.14435577367E+04  0.14435941784E+04  0.10000000000E+02 0.  1.
</event>
<event>
 5    1  0.9130022E-009  0.3725766E+03  0.7957747E-01  0.3484133E+00
         13   -1    0    0    0    0  0.00000000000E+00  0.00000000000E+00  0.14999999963E+04  0.15000000000E+04  0.10566000000E+00 0. -1.
        994   -1    0    0    0    0 -0.00000000000E+00 -0.00000000000E+00  0.11368683772E-12  0.17120000000E+03  0.17120000000E+03 0.  0.
         13    1    1    2    0    0  0.10165153053E+02 -0.83316540839E+02  0.35779978151E+03  0.36751281764E+03  0.10566000000E+00 0. -1.
        994    1    1    2    0    0 -0.18746859436E+02  0.74179481392E+02  0.28266135389E+02  0.18963769300E+03  0.17120000000E+03 0.  0.
        998    1    1    2    0    0  0.85817063827E+01  0.91370594473E+01  0.11139340794E+04  0.11140494894E+04  0.10000000000E+02 0. -1.
</event>
<event>
 5    1  0.9130022E-009  0.3805765E+03  0.7957747E-01  0.3448652E+00
         13   -1    0    0    0    0  0.00000000000E+00  0.00000000000E+00  0.14999999963E+04  0.15000000000E+04  0.10566000000E+00 0. -1.
        994   -1    0    0    0    0 -0.00000000000E+00 -0.00000000000E+00  0.11368683772E-12  0.17120000000E+03  0.17120000000E+03 0.  0.
         13    1    1    2    0    0  0.69282448014E+01  0.45609246948E+02  0.25779158451E+03  0.26188683853E+03  0.10566000000E+00 0. -1.
        994    1    1    2    0    0  0.20429928572E-01 -0.34442856338E+02  0.78107292573E+01  0.17480491487E+03  0.17120000000E+03 0.  0.
        998    1    1    2    0    0 -0.69486747300E+01 -0.11166390611E+02  0.12343976825E+04  0.12345082466E+04  0.10000000000E+02 0. -1.
</event>
<event>
 5    1  0.9130022E-009  0.3829837E+03  0.7957747E-01  0.3438269E+00
         13   -1    0    0    0    0  0.00000000000E+00  0.00000000000E+00  0.14999999963E+04  0.15000000000E+04  0.10566000000E+00 0. -1.
        994   -1    0    0    0    0 -0.00000000000E+00 -0.00000000000E+00  0.11368683772E-12  0.17120000000E+03  0.17120000000E+03 0.  0.
         13    1    1    2    0    0 -0.38156375273E+02 -0.55194736949E+00  0.33048556180E+02  0.50481995300E+02  0.10566000000E+00 0. -1.
        994    1    1    2    0    0  0.34164008921E+02 -0.21603532644E+01  0.22281023899E+02  0.17600491657E+03  0.17120000000E+03 0.  0.
        998    1    1    2    0    0  0.39923663515E+01  0.27123006339E+01  0.14446704162E+04  0.14447130881E+04  0.10000000000E+02 0. -1.
</event>
<event>
 5    1  0.9130022E-009  0.3915721E+03  0.7957747E-01  0.3402269E+00
         13   -1    0    0    0    0  0.00000000000E+00  0.00000000000E+00  0.14999999963E+04  0.15000000000E+04  0.10566000000E+00 0. -1.
        994   -1    0    0    0    0 -0.00000000000E+00 -0.00000000000E+00  0.11368683772E-12  0.17120000000E+03  0.17120000000E+03 0.  0.
         13    1    1    2    0    0  0.13992270895E+02 -0.10180163163E+03  0.18044752643E+03  0.20765518729E+03  0.10566000000E+00 0. -1.
        994    1    1    2    0    0 -0.32089864896E+02  0.11925450684E+03  0.83203995980E+02  0.22690029039E+03  0.17120000000E+03 0.  0.
        998    1    1    2    0    0  0.18097594001E+02 -0.17452875208E+02  0.12363484739E+04  0.12366445223E+04  0.10000000000E+02 0. -1.
</event>
<event>
 5    1  0.9130022E-009  0.3855711E+03  0.7957747E-01  0.3427254E+00
         13   -1    0    0    0    0  0.00000000000E+00  0.00000000000E+00  0.14999999963E+04  0.15000000000E+04  0.10566000000E+00 0.  1.
        994   -1    0    0    0    0 -0.00000000000E+00 -0.00000000000E+00  0.11368683772E-12  0.17120000000E+03  0.17120000000E+03 0.  0.
         13    1    1    2    0    0  0.95087514056E+01 -0.52266042892E+01  0.48467886361E+02  0.49667704981E+02  0.10566000000E+00 0.  1.
        994    1    1    2    0    0  0.66372906441E+01 -0.62311854634E+01  0.16189951343E+01  0.17144953323E+03  0.17120000000E+03 0.  0.
        998    1    1    2    0    0 -0.16146042050E+02  0.11457789753E+02  0.14499131148E+04  0.14500827618E+04  0.10000000000E+02 0.  1.
</event>
<event>
 5    1  0.1004763E-008  0.3859244E+03  0.7957747E-01  0.3425761E+00
         13   -1    0    0    0    0  0.00000000000E+00  0.00000000000E+00  0.14999999963E+04  0.15000000000E+04  0.10566000000E+00 0. -1.
        994   -1    0    0    0    0 -0.00000000000E+00 -0.00000000000E+00  0.11368683772E-12  0.17120000000E+03  0.17120000000E+03 0.  0.
         13    1    1    2    0    0 -0.79943966826E+01 -0.64714485022E+01  0.45731462125E+02  0.46873956694E+02  0.10566000000E+00 0. -1.
        994    1    1    2    0    0  0.93857397412E+01 -0.12239936245E+01  0.14656719306E+01  0.17146771843E+03  0.17120000000E+03 0.  0.
        998    1    1    2    0    0 -0.13913430586E+01  0.76954421267E+01  0.14528028622E+04  0.14528583249E+04  0.10000000000E+02 0. -1.
</event>
<event>
 5    1  0.9130022E-009  0.3837657E+03  0.7957747E-01  0.3434924E+00
         13   -1    0    0    0    0  0.00000000000E+00  0.00000000000E+00  0.14999999963E+04  0.15000000000E+04  0.10566000000E+00 0. -1.
        994   -1    0    0    0    0 -0.00000000000E+00 -0.00000000000E+00  0.11368683772E-12  0.17120000000E+03  0.17120000000E+03 0.  0.
         13    1    1    2    0    0  0.63976288400E+01 -0.13614355205E+02  0.55921175339E+02  0.57909147272E+02  0.10566000000E+00 0. -1.
        994    1    1    2    0    0 -0.38908979838E+01 -0.15191386295E+02  0.30566065915E+01  0.17194388663E+03  0.17120000000E+03 0.  0.
        998    1    1    2    0    0 -0.25067308562E+01  0.28805741500E+02  0.14410222143E+04  0.14413469661E+04  0.10000000000E+02 0. -1.
</event>
<event>
 5    1  0.9130022E-009  0.3705489E+03  0.7957747E-01  0.3493372E+00
         13   -1    0    0    0    0  0.00000000000E+00  0.00000000000E+00  0.14999999963E+04  0.15000000000E+04  0.10566000000E+00 0. -1.
        994   -1    0    0    0    0 -0.00000000000E+00 -0.00000000000E+00  0.11368683772E-12  0.17120000000E+03  0.17120000000E+03 0.  0.
         13    1    1    2    0    0  0.92703341605E+01 -0.46038233976E+01  0.17765049390E+01  0.10502448246E+02  0.10566000000E+00 0. -1.
        994    1    1    2    0    0  0.51828957394E+00  0.15380171917E+02  0.98001223214E+01  0.17216939539E+03  0.17120000000E+03 0.  0.
        998    1    1    2    0    0 -0.97886237344E+01 -0.10776348520E+02  0.14884233690E+04  0.14885281564E+04  0.10000000000E+02 0. -1.
</event>
<event>
 5    1  0.9130022E-009  0.3786313E+03  0.7957747E-01  0.3457140E+00
         13   -1    0    0    0    0  0.00000000000E+00  0.00000000000E+00  0.14999999963E+04  0.15000000000E+04  0.10566000000E+00 0.  1.
        994   -1    0    0    0    0 -0.00000000000E+00 -0.00000000000E+00  0.11368683772E-12  0.17120000000E+03  0.17120000000E+03 0.  0.
         13    1    1    2    0    0 -0.97139173394E+01  0.20217207224E+02  0.51737545300E+02  0.56390428405E+02  0.10566000000E+00 0.  1.
        994    1    1    2    0    0 -0.18422292796E+00 -0.75330588132E+01  0.50163557596E+01  0.17143915754E+03  0.17120000000E+03 0.  0.
        998    1    1    2    0    0  0.98981402673E+01 -0.12684148411E+02  0.14432460952E+04  0.14433704141E+04  0.10000000000E+02 0.  1.
</event>
<event>
 5    1  0.9130022E-009  0.3846560E+03  0.7957747E-01  0.3431133E+00
         13   -1    0    0    0    0  0.00000000000E+00  0.00000000000E+00  0.14999999963E+04  0.15000000000E+04  0.10566000000E+00 0. -1.
        994   -1    0    0    0    0 -0.00000000000E+00 -0.00000000000E+00  0.11368683772E-12  0.17120000000E+03  0.17120000000E+03 0.  0.
         13    1    1    2    0    0 -0.11754982874E+02  0.10681398836E+02  0.66194673854E+02  0.68073621280E+02  0.10566000000E+00 0. -1.
        994    1    1    2    0    0  0.20875478009E+02 -0.59721942577E+01  0.33547413389E+01  0.17260401784E+03  0.17120000000E+03 0.  0.
        998    1    1    2    0    0 -0.91204951348E+01 -0.47092045781E+01  0.14304505811E+04  0.14305223609E+04  0.10000000000E+02 0. -1.
</event>
<event>
 5    1  0.9130022E-009  0.3850255E+03  0.7957747E-01  0.3429564E+00
         13   -1    0    0    0    0  0.00000000000E+00  0.00000000000E+00  0.14999999963E+04  0.15000000000E+04  0.10566000000E+00 0. -1.
        994   -1    0    0    0    0 -0.00000000000E+00 -0.00000000000E+00  0.11368683772E-12  0.17120000000E+03  0.17120000000E+03 0.  0.
         13    1    1    2    0    0 -0.65168004507E+01  0.12824793350E+02  0.62016286890E+02  0.63662979951E+02  0.10566000000E+00 0. -1.
        994    1    1    2    0    0  0.90161243803E+01 -0.11788335066E+02  0.23420911019E+01  0.17185802493E+03  0.17120000000E+03 0.  0.
        998    1    1    2    0    0 -0.24993239296E+01 -0.10364582834E+01  0.14356416183E+04  0.14356789951E+04  0.10000000000E+02 0. -1.
</event>
<event>
 5    1  0.1527931E-008  0.3857889E+03  0.7957747E-01  0.3426333E+00
         13   -1    0    0    0    0  0.00000000000E+00  0.00000000000E+00  0.14999999963E+04  0.15000000000E+04  0.10566000000E+00 0.  1.
        994   -1    0    0    0    0 -0.00000000000E+00 -0.00000000000E+00  0.11368683772E-12  0.17120000000E+03  0.17120000000E+03 0.  0.
         13    1    1    2    0    0  0.49880666582E+01  0.89089655383E+01  0.42414040039E+02  0.43625823000E+02  0.10566000000E+00 0.  1.
        994    1    1    2    0    0 -0.97653602276E+00 -0.72657274611E+01  0.14153046833E+01  0.17136273663E+03  0.17120000000E+03 0.  0.
        998    1    1    2    0    0 -0.40115306355E+01 -0.16432380772E+01  0.14561706516E+04  0.14562114404E+04  0.10000000000E+02 0.  1.
</event>
<event>
 5    1  0.9130022E-009  0.3836515E+03  0.7957747E-01  0.3435411E+00
         13   -1    0    0    0    0  0.00000000000E+00  0.00000000000E+00  0.14999999963E+04  0.15000000000E+04  0.10566000000E+00 0. -1.
        994   -1    0    0    0    0 -0.00000000000E+00 -0.00000000000E+00  0.11368683772E-12  0.17120000000E+03  0.17120000000E+03 0.  0.
         13    1    1    2    0    0 -0.89296337664E-01  0.20416601743E+02  0.91130862808E+02  0.93389993687E+02  0.10566000000E+00 0. -1.
        994    1    1    2    0    0 -0.18944784420E+01 -0.10985339691E+02  0.27116845219E+01  0.17158397352E+03  0.17120000000E+03 0.  0.
        998    1    1    2    0    0  0.19837747797E+01 -0.94312620522E+01  0.14061574489E+04  0.14062260328E+04  0.10000000000E+02 0. -1.
</event>
<event>
 5    1  0.9130022E-009  0.3858800E+03  0.7957747E-01  0.3425948E+00
         13   -1    0    0    0    0  0.00000000000E+00  0.00000000000E+00  0.14999999963E+04  0.15000000000E+04  0.10566000000E+00 0. -1.
        994   -1    0    0    0    0 -0.00000000000E+00 -0.00000000000E+00  0.11368683772E-12  0.17120000000E+03  0.17120000000E+03 0.  0.
         13    1    1    2    0    0 -0.75795001521E+01 -0.11065007536E+02  0.73772062262E+02  0.74981408021E+02  0.10566000000E+00 0. -1.
        994    1    1    2    0    0  0.10622620392E+02  0.82494686439E+01  0.17872751843E+01  0.17173679905E+03  0.17120000000E+03 0.  0.
        998    1    1    2    0    0 -0.30431202394E+01  0.28155388921E+01  0.14244406588E+04  0.14244817929E+04  0.10000000000E+02 0. -1.
</event>
<event>
 5    1  0.9130022E-009  0.3736866E+03  0.7957747E-01  0.3479118E+00
         13   -1    0    0    0    0  0.00000000000E+00  0.00000000000E+00  0.14999999963E+04  0.15000000000E+04  0.10566000000E+00 0.  1.
        994   -1    0    0    0    0 -0.00000000000E+00 -0.00000000000E+00  0.11368683772E-12  0.17120000000E+03  0.17120000000E+03 0.  0.
         13    1    1    2    0    0  0.58610500505E+01 -0.13740191550E+03  0.70318641998E+03  0.71650875130E+03  0.10566000000E+00 0.  1.
        994    1    1    2    0    0 -0.17449463604E+02  0.13047610685E+03  0.69042498820E+02  0.22672627744E+03  0.17120000000E+03 0.  0.
        998    1    1    2    0    0  0.11588413554E+02  0.69258086423E+01  0.72777107748E+03  0.72796497126E+03  0.10000000000E+02 0. -1.
</event>
<event>
 5    1  0.9130022E-009  0.3849660E+03  0.7957747E-01  0.3429816E+00
         13   -1    0    0    0    0  0.00000000000E+00  0.00000000000E+00  0.14999999963E+04  0.15000000000E+04  0.10566000000E+00 0. -1.
        994   -1    0    0    0    0 -0.00000000000E+00 -0.00000000000E+00  0.11368683772E-12  0.17120000000E+03  0.17120000000E+03 0.  0.
         13    1    1    2    0    0  0.95585672077E+01  0.10911260690E+02  0.62085907055E+02  0.63758080553E+02  0.10566000000E+00 0. -1.
        994    1    1    2    0    0 -0.11073742309E+02 -0.91800346058E+01  0.23278148732E+01  0.17181897313E+03  0.17120000000E+03 0.  0.
        998    1    1    2    0    0  0.15151751015E+01 -0.17312260843E+01  0.14355862744E+04  0.14356229463E+04  0.10000000000E+02 0. -1.
</event>
<event>
 5    1  0.9130022E-009  0.3784504E+03  0.7957747E-01  0.3457934E+00
         13   -1    0    0    0    0  0.00000000000E+00  0.00000000000E+00  0.14999999963E+04  0.15000000000E+04  0.10566000000E+00 0.  1.
        994   -1    0    0    0    0 -0.00000000000E+00 -0.00000000000E+00  0.11368683772E-12  0.17120000000E+03  0.17120000000E+03 0.  0.
         13    1    1    2    0    0  0.14180954458E+02 -0.22619285768E+02  0.72258600090E+02  0.77032772305E+02  0.10566000000E+00 0.  1.
        994    1    1    2    0    0  0.52185895856E+01  0.16810700743E+02  0.59591864767E+01  0.17220564811E+03  0.17120000000E+03 0.  0.
        998    1    1    2    0    0 -0.19399544044E+02  0.58085850248E+01  0.14217822097E+04  0.14219615796E+04  0.10000000000E+02 0.  1.
</event>
<event>
 5    1  0.9130022E-009  0.3859979E+03  0.7957747E-01  0.3425451E+00
         13   -1    0    0    0    0  0.00000000000E+00  0.00000000000E+00  0.14999999963E+04  0.15000000000E+04  0.10566000000E+00 0. -1.
        994   -1    0    0    0    0 -0.00000000000E+00 -0.00000000000E+00  0.11368683772E-12  0.17120000000E+03  0.17120000000E+03 0.  0.
         13    1    1    2    0    0  0.78532130543E+01  0.11176097276E+02  0.81789181891E+02  0.82922008804E+02  0.10566000000E+00 0. -1.
        994    1    1    2    0    0 -0.16071526869E+02 -0.22327132065E+01  0.19990319488E+01  0.17197882170E+03  0.17120000000E+03 0.  0.
        998    1    1    2    0    0  0.82183138151E+01 -0.89433840699E+01  0.14162117824E+04  0.14162991695E+04  0.10000000000E+02 0. -1.
</event>
<event>
 5    1  0.9130022E-009  0.3786108E+03  0.7957747E-01  0.3457230E+00
         13   -1    0    0    0    0  0.00000000000E+00  0.00000000000E+00  0.14999999963E+04  0.15000000000E+04  0.10566000000E+00 0.  1.
        994   -1    0    0    0    0 -0.00000000000E+00 -0.00000000000E+00  0.11368683772E-12  0.17120000000E+03  0.17120000000E+03 0.  0.
         13    1    1    2    0    0 -0.48709756837E+02 -0.90996217408E+02  0.34699369284E+03  0.36201876474E+03  0.10566000000E+00 0.  1.
        994    1    1    2    0    0  0.54929402000E+02  0.35521140029E+02  0.31158920493E+02  0.18590134190E+03  0.17120000000E+03 0.  0.
        998    1    1    2    0    0 -0.62196451627E+01  0.55475077378E+02  0.11218473829E+04  0.11232798934E+04  0.10000000000E+02 0.  1.
</event>
<event>
 5    1  0.9130022E-009  0.3856242E+03  0.7957747E-01  0.3427029E+00
         13   -1    0    0    0    0  0.00000000000E+00  0.00000000000E+00  0.14999999963E+04  0.15000000000E+04  0.10566000000E+00 0.  1.
        994   -1    0    0    0    0 -0.00000000000E+00 -0.00000000000E+00  0.11368683772E-12  0.17120000000E+03  0.17120000000E+03 0.  0.
         13    1    1    2    0    0 -0.94214877231E+01  0.54665325951E+01  0.49041875378E+02  0.50237079077E+02  0.10566000000E+00 0.  1.
        994    1    1    2    0    0 -0.77731487439E+01 -0.16562241856E+01  0.15278759736E+01  0.17139118800E+03  0.17120000000E+03 0.  0.
        998    1    1    2    0    0  0.17194636467E+02 -0.38103084095E+01  0.14494302449E+04  0.14495717329E+04  0.10000000000E+02 0.  1.
</event>
<event>
 5    1  0.9130022E-009  0.3858010E+03  0.7957747E-01  0.3426282E+00
         13   -1    0    0    0    0  0.00000000000E+00  0.00000000000E+00  0.14999999963E+04  0.15000000000E+04  0.10566000000E+00 0. -1.
        994   -1    0    0    0    0 -0.00000000000E+00 -0.00000000000E+00  0.11368683772E-12  0.17120000000E+03  0.17120000000E+03 0.  0.
         13    1    1    2    0    0 -0.11201591282E+02 -0.61633740098E+00  0.52781465361E+02  0.53960631656E+02  0.10566000000E+00 0. -1.
        994    1    1    2    0    0  0.44825253892E+01 -0.10839494436E+02  0.16843871588E+01  0.17160962920E+03  0.17120000000E+03 0.  0.
        998    1    1    2    0    0  0.67190658925E+01  0.11455831837E+02  0.14455341438E+04  0.14456297391E+04  0.10000000000E+02 0. -1.
</event>
<event>
 5    1  0.9130022E-009  0.3717709E+03  0.7957747E-01  0.3487792E+00
         13   -1    0    0    0    0  0.00000000000E+00  0.00000000000E+00  0.14999999963E+04  0.15000000000E+04  0.10566000000E+00 0.  1.
        994   -1    0    0    0    0 -0.00000000000E+00 -0.00000000000E+00  0.11368683772E-12  0.17120000000E+03  0.17120000000E+03 0.  0.
         13    1    1    2    0    0  0.41122558461E+02 -0.48204065057E+02  0.15250581957E+03  0.16514458171E+03  0.10566000000E+00 0.  1.
        994    1    1    2    0    0 -0.41743855587E+02  0.40595547516E+02  0.23902864314E+02  0.18240431705E+03  0.17120000000E+03 0.  0.
        998    1    1    2    0    0  0.62129712586E+00  0.76085175407E+01  0.13235913124E+04  0.13236511012E+04  0.10000000000E+02 0.  1.
</event>
<event>
 5    1  0.9130022E-009  0.3817726E+03  0.7957747E-01  0.3443476E+00
         13   -1    0    0    0    0  0.00000000000E+00  0.00000000000E+00  0.14999999963E+04  0.15000000000E+04  0.10566000000E+00 0.  1.
        994   -1    0    0    0    0 -0.00000000000E+00 -0.00000000000E+00  0.11368683772E-12  0.17120000000E+03  0.17120000000E+03 0.  0.
         13    1    1    2    0    0  0.31364024529E+02  0.10048910247E+02  0.17798776837E+03  0.18100922486E+03  0.10566000000E+00 0.  1.
        994    1    1    2    0    0 -0.17276508218E+02  0.16783550686E+02  0.51715294322E+01  0.17296343552E+03  0.17120000000E+03 0.  0.
        998    1    1    2    0    0 -0.14087516311E+02 -0.26832460934E+02  0.13168406985E+04  0.13172273396E+04  0.10000000000E+02 0.  1.
</event>
<event>
 5    1  0.9130022E-009  0.3850182E+03  0.7957747E-01  0.3429595E+00
         13   -1    0    0    0    0  0.00000000000E+00  0.00000000000E+00  0.14999999963E+04  0.15000000000E+04  0.10566000000E+00 0.  1.
        994   -1    0    0    0    0 -0.00000000000E+00 -0.00000000000E+00  0.11368683772E-12  0.17120000000E+03  0.17120000000E+03 0.  0.
         13    1    1    2    0    0 -0.19637235435E+02  0.10403550073E+01  0.10599061154E+03  0.10779946314E+03  0.10566000000E+00 0.  1.
        994    1    1    2    0    0  0.27014857697E+02 -0.24639020815E+02  0.60297986702E+01  0.17516472920E+03  0.17120000000E+03 0.  0.
        998    1    1    2    0    0 -0.73776222618E+01  0.23598665807E+02  0.13879795861E+04  0.13882358077E+04  0.10000000000E+02 0.  1.
</event>
<event>
 5    1  0.9130022E-009  0.3831223E+03  0.7957747E-01  0.3437675E+00
         13   -1    0    0    0    0  0.00000000000E+00  0.00000000000E+00  0.14999999963E+04  0.15000000000E+04  0.10566000000E+00 0.  1.
        994   -1    0    0    0    0 -0.00000000000E+00 -0.00000000000E+00  0.11368683772E-12  0.17120000000E+03  0.17120000000E+03 0.  0.
         13    1    1    2    0    0  0.11281289833E+02 -0.75302709820E+01  0.35029223427E+02  0.37563681121E+02  0.10566000000E+00 0.  1.
        994    1    1    2    0    0 -0.50956273795E+01  0.90374707563E+01  0.29214782995E+01  0.17153896447E+03  0.17120000000E+03 0.  0.
        998    1    1    2    0    0 -0.61856624540E+01 -0.15071997743E+01  0.14620492946E+04  0.14620973544E+04  0.10000000000E+02 0.  1.
</event>
<event>
 5    1  0.9130022E-009  0.3765037E+03  0.7957747E-01  0.3466525E+00
         13   -1    0    0    0    0  0.00000000000E+00  0.00000000000E+00  0.14999999963E+04  0.15000000000E+04  0.10566000000E+00 0. -1.
        994   -1    0    0    0    0 -0.00000000000E+00 -0.00000000000E+00  0.11368683772E-12  0.17120000000E+03  0.17120000000E+03 0.  0.
         13    1    1    2    0    0 -0.45529728769E+02 -0.38116593778E+02  0.24693423789E+03  0.25397314805E+03  0.10566000000E+00 0. -1.
        994    1    1    2    0    0  0.40277857028E+02  0.46116438500E+02  0.18694990492E+02  0.18277848434E+03  0.17120000000E+03 0.  0.
        998    1    1    2    0    0  0.52518717402E+01 -0.79998447219E+01  0.12343707679E+04  0.12344483676E+04  0.10000000000E+02 0. -1.
</event>
<event>
 5    1  0.9130022E-009  0.3848128E+03  0.7957747E-01  0.3430467E+00
         13   -1    0    0    0    0  0.00000000000E+00  0.00000000000E+00  0.14999999963E+04  0.15000000000E+04  0.10566000000E+00 0. -1.
        994   -1    0    0    0    0 -0.00000000000E+00 -0.00000000000E+00  0.11368683772E-12  0.17120000000E+03  0.17120000000E+03 0.  0.
         13    1    1    2    0    0  0.93778774708E+00 -0.20428755938E+02  0.10917051198E+03  0.11106946190E+03  0.10566000000E+00 0. -1.
        994    1    1    2    0    0 -0.79685755607E+00  0.26244627673E+02  0.39950458183E+01  0.17324784517E+03  0.17120000000E+03 0.  0.
        998    1    1    2    0    0 -0.14093019101E+00 -0.58158717345E+01  0.13868344385E+04  0.13868826929E+04  0.10000000000E+02 0. -1.
</event>
<event>
 5    1  0.9130022E-009  0.3860560E+03  0.7957747E-01  0.3425206E+00
         13   -1    0    0    0    0  0.00000000000E+00  0.00000000000E+00  0.14999999963E+04  0.15000000000E+04  0.10566000000E+00 0.  1.
        994   -1    0    0    0    0 -0.00000000000E+00 -0.00000000000E+00  0.11368683772E-12  0.17120000000E+03  0.17120000000E+03 0.  0.
         13    1    1    2    0    0 -0.23179129105E+01  0.11428561967E+02  0.69884450844E+02  0.70850775456E+02  0.10566000000E+00 0.  1.
        994    1    1    2    0    0  0.53582378038E+01  0.77142840888E+01  0.13959294703E+01  0.17146314330E+03  0.17120000000E+03 0.  0.
        998    1    1    2    0    0 -0.30403248933E+01 -0.19142846056E+02  0.14287196160E+04  0.14288860812E+04  0.10000000000E+02 0.  1.
</event>
<event>
 5    1  0.9130022E-009  0.3739554E+03  0.7957747E-01  0.3477908E+00
         13   -1    0    0    0    0  0.00000000000E+00  0.00000000000E+00  0.14999999963E+04  0.15000000000E+04  0.10566000000E+00 0.  1.
        994   -1    0    0    0    0 -0.00000000000E+00 -0.00000000000E+00  0.11368683772E-12  0.17120000000E+03  0.17120000000E+03 0.  0.
         13    1    1    2    0    0 -0.50856217748E+02 -0.17160651409E+03  0.97713831031E+03  0.99339540929E+03  0.10566000000E+00 0.  1.
        994    1    1    2    0    0  0.29847757356E+02  0.16071159534E+03  0.10465128332E+03  0.25880578934E+03  0.17120000000E+03 0.  0.
        998    1    1    2    0    0  0.21008460392E+02  0.10894918747E+02  0.41821040265E+03  0.41899880137E+03  0.10000000000E+02 0. -1.
</event>
<event>
 5    1  0.9130022E-009  0.3805431E+03  0.7957747E-01  0.3448797E+00
         13   -1    0    0    0    0  0.00000000000E+00  0.00000000000E+00  0.14999999963E+04  0.15000000000E+04  0.10566000000E+00 0.  1.
        994   -1    0    0    0    0 -0.00000000000E+00 -0.00000000000E+00  0.11368683772E-12  0.17120000000E+03  0.17120000000E+03 0.  0.
         13    1    1    2    0    0  0.62950104817E+01 -0.88855931005E+01  0.13923904723E+02  0.17676742021E+02  0.10566000000E+00 0.  1.
        994    1    1    2    0    0  0.42128690006E+01  0.47546208454E+01  0.39939420738E+01  0.17136436694E+03  0.17120000000E+03 0.  0.
        998    1    1    2    0    0 -0.10507879482E+02  0.41309722551E+01  0.14820821495E+04  0.14821588910E+04  0.10000000000E+02 0.  1.
</event>
<event>
 5    1  0.9130022E-009  0.3737402E+03  0.7957747E-01  0.3478876E+00
         13   -1    0    0    0    0  0.00000000000E+00  0.00000000000E+00  0.14999999963E+04  0.15000000000E+04  0.10566000000E+00 0.  1.
        994   -1    0    0    0    0 -0.00000000000E+00 -0.00000000000E+00  0.11368683772E-12  0.17120000000E+03  0.17120000000E+03 0.  0.
         13    1    1    2    0    0  0.41480042799E+02  0.23512064698E+02  0.19066938395E+03  0.19654067334E+03  0.10566000000E+00 0.  1.
        994    1    1    2    0    0  0.59445082637E+01  0.10703688625E+02  0.78389719125E+01  0.17181616807E+03  0.17120000000E+03 0.  0.
        998    1    1    2    0    0 -0.47424551063E+02 -0.34215753323E+02  0.13014916404E+04  0.13028431586E+04  0.10000000000E+02 0.  1.
</event>
<event>
 5    1  0.9130022E-009  0.3824839E+03  0.7957747E-01  0.3440414E+00
         13   -1    0    0    0    0  0.00000000000E+00  0.00000000000E+00  0.14999999963E+04  0.15000000000E+04  0.10566000000E+00 0.  1.
        994   -1    0    0    0    0 -0.00000000000E+00 -0.00000000000E+00  0.11368683772E-12  0.17120000000E+03  0.17120000000E+03 0.  0.
         13    1    1    2    0    0 -0.11099590385E+02 -0.10468389803E+02  0.43762164801E+02  0.46345726059E+02  0.10566000000E+00 0.  1.
        994    1    1    2    0    0 -0.81650328823E+01 -0.13686314360E+02  0.37270937153E+01  0.17198056341E+03  0.17120000000E+03 0.  0.
        998    1    1    2    0    0  0.19264623268E+02  0.24154704163E+02  0.14525107378E+04  0.14528737105E+04  0.10000000000E+02 0.  1.
</event>
<event>
 5    1  0.9130022E-009  0.3809264E+03  0.7957747E-01  0.3447134E+00
         13   -1    0    0    0    0  0.00000000000E+00  0.00000000000E+00  0.14999999963E+04  0.15000000000E+04  0.10566000000E+00 0. -1.
        994   -1    0    0    0    0 -0.00000000000E+00 -0.00000000000E+00  0.11368683772E-12  0.17120000000E+03  0.17120000000E+03 0.  0.
         13    1    1    2    0    0 -0.15336205753E+02  0.24733190564E+02  0.12133461514E+03  0.12477591882E+03  0.10566000000E+00 0. -1.
        994    1    1    2    0    0  0.35875157863E+01 -0.66676364736E+01  0.38573017029E+01  0.17141075352E+03  0.17120000000E+03 0.  0.
        998    1    1    2    0    0  0.11748689966E+02 -0.18065554091E+02  0.13748080794E+04  0.13750133277E+04  0.10000000000E+02 0. -1.
</event>
<event>
 5    1  0.9130022E-009  0.3716497E+03  0.7957747E-01  0.3488343E+00
         13   -1    0    0    0    0  0.00000000000E+00  0.00000000000E+00  0.14999999963E+04  0.15000000000E+04  0.10566000000E+00 0. -1.
        994   -1    0    0    0    0 -0.00000000000E+00 -0.00000000000E+00  0.11368683772E-12  0.17120000000E+03  0.17120000000E+03 0.  0.
         13    1    1    2    0    0 -0.27098560303E-01  0.72191350632E+02  0.40344884058E+03  0.40985676763E+03  0.10566000000E+00 0. -1.
        994    1    1    2    0    0  0.85744611477E+01 -0.10000744358E+02  0.90061738168E+01  0.17194210490E+03  0.17120000000E+03 0.  0.
        998    1    1    2    0    0 -0.85473625874E+01 -0.62190606274E+02  0.10875449819E+04  0.10894011275E+04  0.10000000000E+02 0.  1.
</event>
<event>
 5    1  0.9130022E-009  0.3815658E+03  0.7957747E-01  0.3444369E+00
         13   -1    0    0    0    0  0.00000000000E+00  0.00000000000E+00  0.14999999963E+04  0.15000000000E+04  0.10566000000E+00 0. -1.
        994   -1    0    0    0    0 -0.00000000000E+00 -0.00000000000E+00  0.11368683772E-12  0.17120000000E+03  0.17120000000E+03 0.  0.
         13    1    1    2    0    0  0.18461660674E+02  0.19431012344E+02  0.99850150789E+02  0.10338501309E+03  0.10566000000E+00 0. -1.
        994    1    1    2    0    0 -0.14559669131E+02 -0.24198259045E+02  0.60017299333E+01  0.17361739679E+03  0.17120000000E+03 0.  0.
        998    1    1    2    0    0 -0.39019915428E+01  0.47672467012E+01  0.13941481156E+04  0.13941975901E+04  0.10000000000E+02 0. -1.
</event>
<event>
 5    1  0.9130022E-009  0.3812708E+03  0.7957747E-01  0.3445644E+00
         13   -1    0    0    0    0  0.00000000000E+00  0.00000000000E+00  0.14999999963E+04  0.15000000000E+04  0.10566000000E+00 0.  1.
        994   -1    0    0    0    0 -0.00000000000E+00 -0.00000000000E+00  0.11368683772E-12  0.17120000000E+03  0.17120000000E+03 0.  0.
         13    1    1    2    0    0  0.12530924937E+02  0.77506525865E+01  0.29879232588E+02  0.33314807509E+02  0.10566000000E+00 0.  1.
        994    1    1    2    0    0 -0.72952812179E+01 -0.45308060615E+01  0.37385681364E+01  0.17145601834E+03  0.17120000000E+03 0.  0.
        998    1    1    2    0    0 -0.52356437187E+01 -0.32198465250E+01  0.14663821956E+04  0.14664291742E+04  0.10000000000E+02 0.  1.
</event>
<event>
 5    1  0.9130022E-009  0.3844144E+03  0.7957747E-01  0.3432160E+00
         13   -1    0    0    0    0  0.00000000000E+00  0.00000000000E+00  0.14999999963E+04  0.15000000000E+04  0.10566000000E+00 0. -1.
        994   -1    0    0    0    0 -0.00000000000E+00 -0.00000000000E+00  0.11368683772E-12  0.17120000000E+03  0.17120000000E+03 0.  0.
         13    1    1    2    0    0  0.51660488535E+02  0.96302304447E+02  0.30077958220E+03  0.32001766849E+03  0.10566000000E+00 0. -1.
        994    1    1    2    0    0 -0.57829100795E+02 -0.53002881663E+02  0.41808621152E+02  0.19290129903E+03  0.17120000000E+03 0.  0.
        998    1    1    2    0    0  0.61686122600E+01 -0.43299422784E+02  0.11574117929E+04  0.11582810325E+04  0.10000000000E+02 0.  1.
</event>
<event>
 5    1  0.9130022E-009  0.3844533E+03  0.7957747E-01  0.3431994E+00
         13   -1    0    0    0    0  0.00000000000E+00  0.00000000000E+00  0.14999999963E+04  0.15000000000E+04  0.10566000000E+00 0. -1.
        994   -1    0    0    0    0 -0.00000000000E+00 -0.00000000000E+00  0.11368683772E-12  0.17120000000E+03  0.17120000000E+03 0.  0.
         13    1    1    2    0    0  0.83104949485E+01  0.11861179906E+02  0.54186763678E+02  0.56088933285E+02  0.10566000000E+00 0. -1.
        994    1    1    2    0    0 -0.36994316905E+01 -0.11963093833E+02  0.24185489647E+01  0.17167437429E+03  0.17120000000E+03 0.  0.
        998    1    1    2    0    0 -0.46110632580E+01  0.10191392628E+00  0.14433946836E+04  0.14434366924E+04  0.10000000000E+02 0. -1.
</event>
<event>
 5    1  0.9130022E-009  0.3823803E+03  0.7957747E-01  0.3440859E+00
         13   -1    0    0    0    0  0.00000000000E+00  0.00000000000E+00  0.14999999963E+04  0.15000000000E+04  0.10566000000E+00 0.  1.
        994   -1    0    0    0    0 -0.00000000000E+00 -0.00000000000E+00  0.11368683772E-12  0.17120000000E+03  0.17120000000E+03 0.  0.
         13    1    1    2    0    0 -0.49975722887E+01 -0.16736324092E+02  0.54608279035E+02  0.57333721108E+02  0.10566000000E+00 0.  1.
        994    1    1    2    0    0  0.36115697572E+02 -0.13758740003E+02  0.79064113700E+01  0.17568607765E+03  0.17120000000E+03 0.  0.
        998    1    1    2    0    0 -0.31118125284E+02  0.30495064095E+02  0.14374853059E+04  0.14381802012E+04  0.10000000000E+02 0.  1.
</event>
<event>
 5    1  0.9130022E-009  0.3721183E+03  0.7957747E-01  0.3486212E+00
         13   -1    0    0    0    0  0.00000000000E+00  0.00000000000E+00  0.14999999963E+04  0.15000000000E+04  0.10566000000E+00 0. -1.
        994   -1    0    0    0    0 -0.00000000000E+00 -0.00000000000E+00  0.11368683772E-12  0.17120000000E+03  0.17120000000E+03 0.  0.
         13    1    1    2    0    0 -0.68884395873E+02  0.32236508480E+02  0.29138521973E+03  0.30114715658E+03  0.10566000000E+00 0. -1.
        994    1    1    2    0    0  0.70713820746E+02 -0.18978649773E+02  0.26797474079E+02  0.18811745854E+03  0.17120000000E+03 0.  0.
        998    1    1    2    0    0 -0.18294248738E+01 -0.13257858708E+02  0.11818173025E+04  0.11819353849E+04  0.10000000000E+02 0. -1.
</event>
<event>
 5    1  0.9130022E-009  0.3730618E+03  0.7957747E-01  0.3481937E+00
         13   -1    0    0    0    0  0.00000000000E+00  0.00000000000E+00  0.14999999963E+04  0.15000000000E+04  0.10566000000E+00 0.  1.
        994   -1    0    0    0    0 -0.00000000000E+00 -0.00000000000E+00  0.11368683772E-12  0.17120000000E+03  0.17120000000E+03 0.  0.
         13    1    1    2    0    0 -0.11351480452E+03 -0.72995993194E+02  0.65873284217E+03  0.67241578981E+03  0.10566000000E+00 0.  1.
        994    1    1    2    0    0  0.13001724986E+03  0.44774670872E+02  0.75426170757E+02  0.23218054106E+03  0.17120000000E+03 0.  0.
        998    1    1    2    0    0 -0.16502445341E+02  0.28221322322E+02  0.76584098336E+03  0.76660366913E+03  0.10000000000E+02 0.  1.
</event>
<event>
 5    1  0.9130022E-009  0.3854714E+03  0.7957747E-01  0.3427675E+00
         13   -1    0    0    0    0  0.00000000000E+00  0.00000000000E+00  0.14999999963E+04  0.15000000000E+04  0.10566000000E+00 0. -1.
        994   -1    0    0    0    0 -0.00000000000E+00 -0.00000000000E+00  0.11368683772E-12  0.17120000000E+03  0.17120000000E+03 0.  0.
         13    1    1    2    0    0  0.16334497577E+02 -0.16074890052E+01  0.78510771303E+02  0.80208180422E+02  0.10566000000E+00 0. -1.
        994    1    1    2    0    0 -0.40983437595E+02 -0.73423970202E+01  0.71094243057E+01  0.17633359540E+03  0.17120000000E+03 0.  0.
        998    1    1    2    0    0  0.24648940018E+02  0.89498860254E+01  0.14143798007E+04  0.14146582242E+04  0.10000000000E+02 0. -1.
</event>
<event>
 5    1  0.9130022E-009  0.3735500E+03  0.7957747E-01  0.3479733E+00
         13   -1    0    0    0    0  0.00000000000E+00  0.00000000000E+00  0.14999999963E+04  0.15000000000E+04  0.10566000000E+00 0.  1.
        994   -1    0    0    0    0 -0.00000000000E+00 -0.00000000000E+00  0.11368683772E-12  0.17120000000E+03  0.17120000000E+03 0.  0.
         13    1    1    2    0    0  0.10239312247E+03 -0.38768430846E+02  0.53940157873E+03  0.55040114195E+03  0.10566000000E+00 0.  1.
        994    1    1    2    0    0 -0.94371730512E+02  0.42077586988E+02  0.44822095449E+02  0.20492683350E+03  0.17120000000E+03 0.  0.
        998    1    1    2    0    0 -0.80213919539E+01 -0.33091561415E+01  0.91577632210E+03  0.91587202455E+03  0.10000000000E+02 0. -1.
</event>
<event>
 5    1  0.9130022E-009  0.3830888E+03  0.7957747E-01  0.3437818E+00
         13   -1    0    0    0    0  0.00000000000E+00  0.00000000000E+00  0.14999999963E+04  0.15000000000E+04  0.10566000000E+00 0.  1.
        994   -1    0    0    0    0 -0.00000000000E+00 -0.00000000000E+00  0.11368683772E-12  0.17120000000E+03  0.17120000000E+03 0.  0.
         13    1    1    2    0    0 -0.90147021146E+01 -0.99761671384E+01  0.32801732685E+02  0.35450720672E+02  0.10566000000E+00 0.  1.
        994    1    1    2    0    0  0.15929175627E+02  0.12508388062E+02  0.39405588360E+01  0.17243887732E+03  0.17120000000E+03 0.  0.
        998    1    1    2    0    0 -0.69144735123E+01 -0.25322209238E+01  0.14632577048E+04  0.14633104020E+04  0.10000000000E+02 0.  1.
</event>
<event>
 5    1  0.9130022E-009  0.3749766E+03  0.7957747E-01  0.3473327E+00
         13   -1    0    0    0    0  0.00000000000E+00  0.00000000000E+00  0.14999999963E+04  0.15000000000E+04  0.10566000000E+00 0.  1.
        994   -1    0    0    0    0 -0.00000000000E+00 -0.00000000000E+00  0.11368683772E-12  0.17120000000E+03  0.17120000000E+03 0.  0.
         13    1    1    2    0    0  0.14196302277E+02 -0.20936624399E+02  0.45210531584E+02  0.51806182736E+02  0.10566000000E+00 0.  1.
        994    1    1    2    0    0 -0.14068025250E+02  0.10527130456E+02  0.77409518441E+01  0.17227330654E+03  0.17120000000E+03 0.  0.
        998    1    1    2    0    0 -0.12827702701E+00  0.10409493944E+02  0.14470485129E+04  0.14471205107E+04  0.10000000000E+02 0.  1.
</event>
<event>
 5    1  0.9130022E-009  0.3695417E+03  0.7957747E-01  0.3498000E+00
         13   -1    0    0    0    0  0.00000000000E+00  0.00000000000E+00  0.14999999963E+04  0.15000000000E+04  0.10566000000E+00 0.  1.
        994   -1    0    0    0    0 -0.00000000000E+00 -0.00000000000E+00  0.11368683772E-12  0.17120000000E+03  0.17120000000E+03 0.  0.
         13    1    1    2    0    0  0.42245923659E+02  0.99813914329E+02  0.37334830324E+03  0.38876278404E+03  0.10566000000E+00 0.  1.
        994    1    1    2    0    0  0.14909403654E+00 -0.13107803826E+03  0.73321340391E+02  0.22774313008E+03  0.17120000000E+03 0.  0.
        998    1    1    2    0    0 -0.42395017696E+02  0.31264123932E+02  0.10533303526E+04  0.10546940859E+04  0.10000000000E+02 0.  1.
</event>
<event>
 5    1  0.9130022E-009  0.3773704E+03  0.7957747E-01  0.3462689E+00
         13   -1    0    0    0    0  0.00000000000E+00  0.00000000000E+00  0.14999999963E+04  0.15000000000E+04  0.10566000000E+00 0. -1.
        994   -1    0    0    0    0 -0.00000000000E+00 -0.00000000000E+00  0.11368683772E-12  0.17120000000E+03  0.17120000000E+03 0.  0.
         13    1    1    2    0    0  0.47035524670E+02 -0.68084095831E+01  0.24628872893E+03  0.25083230291E+03  0.10566000000E+00 0. -1.
        994    1    1    2    0    0 -0.20629649593E+01  0.61461448046E+01  0.56082371786E+01  0.17141447793E+03  0.17120000000E+03 0.  0.
        998    1    1    2    0    0 -0.44972559711E+02  0.66226477850E+00  0.12481030302E+04  0.12489532192E+04  0.10000000000E+02 0. -1.
</event>
<event>
 5    1  0.9130022E-009  0.3744904E+03  0.7957747E-01  0.3475505E+00
         13   -1    0    0    0    0  0.00000000000E+00  0.00000000000E+00  0.14999999963E+04  0.15000000000E+04  0.10566000000E+00 0.  1.
        994   -1    0    0    0    0 -0.00000000000E+00 -0.00000000000E+00  0.11368683772E-12  0.17120000000E+03  0.17120000000E+03 0.  0.
         13    1    1    2    0    0 -0.18943629627E+02 -0.20041535136E+01  0.22871278270E+02  0.29765487876E+02  0.10566000000E+00 0.  1.
        994    1    1    2    0    0  0.19126751193E+02  0.13638870955E+01  0.81936634370E+01  0.17246526873E+03  0.17120000000E+03 0.  0.
        998    1    1    2    0    0 -0.18312156547E+00  0.64026641805E+00  0.14689350546E+04  0.14689692434E+04  0.10000000000E+02 0.  1.
</event>
<event>
 5    1  0.9130022E-009  0.3726658E+03  0.7957747E-01  0.3483728E+00
         13   -1    0    0    0    0  0.00000000000E+00  0.00000000000E+00  0.14999999963E+04  0.15000000000E+04  0.10566000000E+00 0.  1.
        994   -1    0    0    0    0 -0.00000000000E+00 -0.00000000000E+00  0.11368683772E-12  0.17120000000E+03  0.17120000000E+03 0.  0.
         13    1    1    2    0    0  0.33683422259E+02 -0.43428319523E+02  0.23393971302E+03  0.24030895190E+03  0.10566000000E+00 0.  1.
        994    1    1    2    0    0 -0.57758389425E+02 -0.40254082932E+02  0.25059547079E+02  0.18679893908E+03  0.17120000000E+03 0.  0.
        998    1    1    2    0    0  0.24074967166E+02  0.83682402455E+02  0.12410007362E+04  0.12440921090E+04  0.10000000000E+02 0.  1.
</event>
<event>
 5    1  0.9130022E-009  0.3834205E+03  0.7957747E-01  0.3436399E+00
         13   -1    0    0    0    0  0.00000000000E+00  0.00000000000E+00  0.14999999963E+04  0.15000000000E+04  0.10566000000E+00 0. -1.
        994   -1    0    0    0    0 -0.00000000000E+00 -0.00000000000E+00  0.11368683772E-12  0.17120000000E+03  0.17120000000E+03 0.  0.
         13    1    1    2    0    0  0.19055527022E+02 -0.16252623478E+02  0.11851905415E+03  0.12113644473E+03  0.10566000000E+00 0. -1.
        994    1    1    2    0    0 -0.24487723263E+02  0.13735689161E+02  0.50265896097E+01  0.17355985812E+03  0.17120000000E+03 0.  0.
        998    1    1    2    0    0  0.54321962417E+01  0.25169343174E+01  0.13764543525E+04  0.13765036972E+04  0.10000000000E+02 0. -1.
</event>
<event>
 5    1  0.9130022E-009  0.3893428E+03  0.7957747E-01  0.3411460E+00
         13   -1    0    0    0    0  0.00000000000E+00  0.00000000000E+00  0.14999999963E+04  0.15000000000E+04  0.10566000000E+00 0. -1.
        994   -1    0    0    0    0 -0.00000000000E+00 -0.00000000000E+00  0.11368683772E-12  0.17120000000E+03  0.17120000000E+03 0.  0.
         13    1    1    2    0    0 -0.47623531146E+02  0.47296244464E+02  0.92372001657E+02  0.11418201835E+03  0.10566000000E+00 0. -1.
        994    1    1    2    0    0  0.81389990651E+02 -0.82487331392E+01  0.47133852717E+02  0.19550808742E+03  0.17120000000E+03 0.  0.
        998    1    1    2    0    0 -0.33766459506E+02 -0.39047511325E+02  0.13604941419E+04  0.13615098942E+04  0.10000000000E+02 0. -1.
</event>
<event>
 5    1  0.9130022E-009  0.2403825E+03  0.7957747E-01  0.4441888E+00
         13   -1    0    0    0    0  0.00000000000E+00  0.00000000000E+00  0.14999999963E+04  0.15000000000E+04  0.10566000000E+00 0. -1.
        994   -1    0    0    0    0 -0.00000000000E+00 -0.00000000000E+00  0.11368683772E-12  0.17120000000E+03  0.17120000000E+03 0.  0.
         13    1    1    2    0    0  0.14468886562E+03  0.83951630925E+02  0.19467729750E+03  0.25667490235E+03  0.10566000000E+00 0. -1.
        994    1    1    2    0    0 -0.14607611271E+03 -0.82696291007E+02  0.20874628446E+03  0.31790149186E+03  0.17120000000E+03 0.  0.
        998    1    1    2    0    0  0.13872470869E+01 -0.12553399182E+01  0.10965764143E+04  0.10966236058E+04  0.10000000000E+02 0.  0.
</event>
<event>
 5    1  0.9130022E-009  0.3807895E+03  0.7957747E-01  0.3447728E+00
         13   -1    0    0    0    0  0.00000000000E+00  0.00000000000E+00  0.14999999963E+04  0.15000000000E+04  0.10566000000E+00 0.  1.
        994   -1    0    0    0    0 -0.00000000000E+00 -0.00000000000E+00  0.11368683772E-12  0.17120000000E+03  0.17120000000E+03 0.  0.
         13    1    1    2    0    0  0.10183705073E+02  0.65307320682E+01  0.17929848591E+02  0.21629816109E+02  0.10566000000E+00 0.  1.
        994    1    1    2    0    0 -0.61254771584E+01 -0.10458403813E+02  0.42250784328E+01  0.17168049094E+03  0.17120000000E+03 0.  0.
        998    1    1    2    0    0 -0.40582279144E+01  0.39276717451E+01  0.14778450693E+04  0.14778896930E+04  0.10000000000E+02 0.  1.
</event>
<event>
 5    1  0.9130022E-009  0.3711138E+03  0.7957747E-01  0.3490788E+00
         13   -1    0    0    0    0  0.00000000000E+00  0.00000000000E+00  0.14999999963E+04  0.15000000000E+04  0.10566000000E+00 0. -1.
        994   -1    0    0    0    0 -0.00000000000E+00 -0.00000000000E+00  0.11368683772E-12  0.17120000000E+03  0.17120000000E+03 0.  0.
         13    1    1    2    0    0 -0.45089981732E+02  0.53787987073E+02  0.41877282052E+03  0.42461387210E+03  0.10566000000E+00 0. -1.
        994    1    1    2    0    0 -0.22734638403E+01  0.37658049539E+01  0.87547185137E+01  0.17148013011E+03  0.17120000000E+03 0.  0.
        998    1    1    2    0    0  0.47363445572E+02 -0.57553792027E+02  0.10724724572E+04  0.10751059978E+04  0.10000000000E+02 0. -1.
</event>
<event>
 5    1  0.9130022E-009  0.3782932E+03  0.7957747E-01  0.3458624E+00
         13   -1    0    0    0    0  0.00000000000E+00  0.00000000000E+00  0.14999999963E+04  0.15000000000E+04  0.10566000000E+00 0.  1.
        994   -1    0    0    0    0 -0.00000000000E+00 -0.00000000000E+00  0.11368683772E-12  0.17120000000E+03  0.17120000000E+03 0.  0.
         13    1    1    2    0    0  0.42928550212E+02 -0.28219025163E+02  0.23727457891E+03  0.24277234349E+03  0.10566000000E+00 0.  1.
        994    1    1    2    0    0 -0.18958642479E+02  0.52483658705E+02  0.15538308727E+02  0.18073417937E+03  0.17120000000E+03 0.  0.
        998    1    1    2    0    0 -0.23969907733E+02 -0.24264633542E+02  0.12471871086E+04  0.12476934771E+04  0.10000000000E+02 0.  1.
</event>
<event>
 5    1  0.9130022E-009  0.3836453E+03  0.7957747E-01  0.3435438E+00
         13   -1    0    0    0    0  0.00000000000E+00  0.00000000000E+00  0.14999999963E+04  0.15000000000E+04  0.10566000000E+00 0. -1.
        994   -1    0    0    0    0 -0.00000000000E+00 -0.00000000000E+00  0.11368683772E-12  0.17120000000E+03  0.17120000000E+03 0.  0.
         13    1    1    2    0    0 -0.95153531717E+01 -0.54938700111E+01  0.27585249414E+02  0.29693125517E+02  0.10566000000E+00 0. -1.
        994    1    1    2    0    0 -0.64835626511E+01 -0.16890385601E+02  0.33861468618E+01  0.17218660721E+03  0.17120000000E+03 0.  0.
        998    1    1    2    0    0  0.15998915823E+02  0.22384255612E+02  0.14690286000E+04  0.14693202673E+04  0.10000000000E+02 0. -1.
</event>
<event>
 5    1  0.9130022E-009  0.3809425E+03  0.7957747E-01  0.3447065E+00
         13   -1    0    0    0    0  0.00000000000E+00  0.00000000000E+00  0.14999999963E+04  0.15000000000E+04  0.10566000000E+00 0. -1.
        994   -1    0    0    0    0 -0.00000000000E+00 -0.00000000000E+00  0.11368683772E-12  0.17120000000E+03  0.17120000000E+03 0.  0.
         13    1    1    2    0    0  0.11926040403E+02  0.97653901233E+01  0.30332734550E+02  0.34024685646E+02  0.10566000000E+00 0. -1.
        994    1    1    2    0    0 -0.11913948345E+02 -0.13653157231E+02  0.47531385324E+01  0.17222190103E+03  0.17120000000E+03 0.  0.
        998    1    1    2    0    0 -0.12092058805E-01  0.38877671075E+01  0.14649141232E+04  0.14649534133E+04  0.10000000000E+02 0. -1.
</event>
<event>
 5    1  0.9130022E-009  0.3733719E+03  0.7957747E-01  0.3480536E+00
         13   -1    0    0    0    0  0.00000000000E+00  0.00000000000E+00  0.14999999963E+04  0.15000000000E+04  0.10566000000E+00 0.  1.
        994   -1    0    0    0    0 -0.00000000000E+00 -0.00000000000E+00  0.11368683772E-12  0.17120000000E+03  0.17120000000E+03 0.  0.
         13    1    1    2    0    0  0.15355446185E+02  0.76249229144E+01  0.15993514347E+02  0.23446382284E+02  0.10566000000E+00 0.  1.
        994    1    1    2    0    0 -0.16800952374E+02 -0.10589495522E+02  0.88664078277E+01  0.17257596184E+03  0.17120000000E+03 0.  0.
        998    1    1    2    0    0  0.14455061889E+01  0.29645726071E+01  0.14751400741E+04  0.14751776559E+04  0.10000000000E+02 0.  1.
</event>
<event>
 5    1  0.9130022E-009  0.3830896E+03  0.7957747E-01  0.3437815E+00
         13   -1    0    0    0    0  0.00000000000E+00  0.00000000000E+00  0.14999999963E+04  0.15000000000E+04  0.10566000000E+00 0.  1.
        994   -1    0    0    0    0 -0.00000000000E+00 -0.00000000000E+00  0.11368683772E-12  0.17120000000E+03  0.17120000000E+03 0.  0.
         13    1    1    2    0    0 -0.88105264366E+01  0.85211558797E+01  0.28729126511E+02  0.31234745840E+02  0.10566000000E+00 0.  1.
        994    1    1    2    0    0  0.64236704559E+01  0.16848265175E+01  0.27275295938E+01  0.17135046425E+03  0.17120000000E+03 0.  0.
        998    1    1    2    0    0  0.23868559807E+01 -0.10205982397E+02  0.14685433402E+04  0.14686147899E+04  0.10000000000E+02 0.  1.
</event>
<event>
 5    1  0.9130022E-009  0.3740748E+03  0.7957747E-01  0.3477371E+00
         13   -1    0    0    0    0  0.00000000000E+00  0.00000000000E+00  0.14999999963E+04  0.15000000000E+04  0.10566000000E+00 0. -1.
        994   -1    0    0    0    0 -0.00000000000E+00 -0.00000000000E+00  0.11368683772E-12  0.17120000000E+03  0.17120000000E+03 0.  0.
         13    1    1    2    0    0  0.74558902764E+01 -0.41973748178E+02  0.14633702849E+03  0.15242021817E+03  0.10566000000E+00 0. -1.
        994    1    1    2    0    0  0.61884345336E+01 -0.55938393615E+01  0.73919164054E+01  0.17156243234E+03  0.17120000000E+03 0.  0.
        998    1    1    2    0    0 -0.13644324810E+02  0.47567587540E+02  0.13462710514E+04  0.13472173495E+04  0.10000000000E+02 0. -1.
</event>
<event>
 5    1  0.9130022E-009  0.3860095E+03  0.7957747E-01  0.3425402E+00
         13   -1    0    0    0    0  0.00000000000E+00  0.00000000000E+00  0.14999999963E+04  0.15000000000E+04  0.10566000000E+00 0. -1.
        994   -1    0    0    0    0 -0.00000000000E+00 -0.00000000000E+00  0.11368683772E-12  0.17120000000E+03  0.17120000000E+03 0.  0.
         13    1    1    2    0    0  0.96074310955E+01 -0.32073424496E+01  0.44991462448E+02  0.46117595721E+02  0.10566000000E+00 0. -1.
        994    1    1    2    0    0 -0.11379649468E+02 -0.19677392629E+01  0.15670474553E+01  0.17159622390E+03  0.17120000000E+03 0.  0.
        998    1    1    2    0    0  0.17722183730E+01  0.51750817125E+01  0.14534414864E+04  0.14534861804E+04  0.10000000000E+02 0. -1.
</event>
<event>
 5    1  0.9130022E-009  0.3720784E+03  0.7957747E-01  0.3486393E+00
         13   -1    0    0    0    0  0.00000000000E+00  0.00000000000E+00  0.14999999963E+04  0.15000000000E+04  0.10566000000E+00 0.  1.
        994   -1    0    0    0    0 -0.00000000000E+00 -0.00000000000E+00  0.11368683772E-12  0.17120000000E+03  0.17120000000E+03 0.  0.
         13    1    1    2    0    0  0.64767759756E+01 -0.38504077335E+02  0.57419230497E+02  0.69436962731E+02  0.10566000000E+00 0.  1.
        994    1    1    2    0    0 -0.11332365588E+02  0.33435448739E+02  0.16443964274E+02  0.17557390382E+03  0.17120000000E+03 0.  0.
        998    1    1    2    0    0  0.48555896129E+01  0.50686285964E+01  0.14261368015E+04  0.14261891334E+04  0.10000000000E+02 0.  1.
</event>
<event>
 5    1  0.9130022E-009  0.3768282E+03  0.7957747E-01  0.3465086E+00
         13   -1    0    0    0    0  0.00000000000E+00  0.00000000000E+00  0.14999999963E+04  0.15000000000E+04  0.10566000000E+00 0. -1.
        994   -1    0    0    0    0 -0.00000000000E+00 -0.00000000000E+00  0.11368683772E-12  0.17120000000E+03  0.17120000000E+03 0.  0.
         13    1    1    2    0    0  0.55991400050E+02  0.13984232504E+02  0.29600665353E+03  0.30158008180E+03  0.10566000000E+00 0. -1.
        994    1    1    2    0    0 -0.27576244103E+02 -0.11440204567E+02  0.87599956288E+01  0.17400432478E+03  0.17120000000E+03 0.  0.
        998    1    1    2    0    0 -0.28415155947E+02 -0.25440279364E+01  0.11952333471E+04  0.11956155934E+04  0.10000000000E+02 0. -1.
</event>
<event>
 5    1  0.9130022E-009  0.3818050E+03  0.7957747E-01  0.3443337E+00
         13   -1    0    0    0    0  0.00000000000E+00  0.00000000000E+00  0.14999999963E+04  0.15000000000E+04  0.10566000000E+00 0. -1.
        994   -1    0    0    0    0 -0.00000000000E+00 -0.00000000000E+00  0.11368683772E-12  0.17120000000E+03  0.17120000000E+03 0.  0.
         13    1    1    2    0    0 -0.63872996238E+01 -0.11845996972E+02  0.26581144837E+02  0.29794188454E+02  0.10566000000E+00 0. -1.
        994    1    1    2    0    0  0.73340579951E+01  0.10218947770E+02  0.37506920504E+01  0.17170242570E+03  0.17120000000E+03 0.  0.
        998    1    1    2    0    0 -0.94675837131E+00  0.16270492026E+01  0.14696681594E+04  0.14697033858E+04  0.10000000000E+02 0. -1.
</event>
<event>
 5    1  0.9130022E-009  0.3686216E+03  0.7957747E-01  0.3502250E+00
         13   -1    0    0    0    0  0.00000000000E+00  0.00000000000E+00  0.14999999963E+04  0.15000000000E+04  0.10566000000E+00 0. -1.
        994   -1    0    0    0    0 -0.00000000000E+00 -0.00000000000E+00  0.11368683772E-12  0.17120000000E+03  0.17120000000E+03 0.  0.
         13    1    1    2    0    0 -0.22484899965E+02 -0.22377630191E+02  0.50496398700E+02  0.59634105217E+02  0.10566000000E+00 0. -1.
        994    1    1    2    0    0 -0.95048639129E+01 -0.19572135548E+01  0.10318587164E+02  0.17178500040E+03  0.17120000000E+03 0.  0.
        998    1    1    2    0    0  0.31989763878E+02  0.24334843745E+02  0.14391850104E+04  0.14397808944E+04  0.10000000000E+02 0. -1.
</event>
<event>
 5    1  0.9130022E-009  0.3834724E+03  0.7957747E-01  0.3436177E+00
         13   -1    0    0    0    0  0.00000000000E+00  0.00000000000E+00  0.14999999963E+04  0.15000000000E+04  0.10566000000E+00 0. -1.
        994   -1    0    0    0    0 -0.00000000000E+00 -0.00000000000E+00  0.11368683772E-12  0.17120000000E+03  0.17120000000E+03 0.  0.
         13    1    1    2    0    0  0.13819364161E+02  0.17133014443E+02  0.10173633829E+03  0.10409038718E+03  0.10566000000E+00 0. -1.
        994    1    1    2    0    0 -0.43258193520E+01 -0.12231749418E+02  0.29469811397E+01  0.17171619931E+03  0.17120000000E+03 0.  0.
        998    1    1    2    0    0 -0.94935448091E+01 -0.49012650247E+01  0.13953166768E+04  0.13953934135E+04  0.10000000000E+02 0. -1.
</event>
<event>
 5    1  0.9130022E-009  0.3791436E+03  0.7957747E-01  0.3454896E+00
         13   -1    0    0    0    0  0.00000000000E+00  0.00000000000E+00  0.14999999963E+04  0.15000000000E+04  0.10566000000E+00 0. -1.
        994   -1    0    0    0    0 -0.00000000000E+00 -0.00000000000E+00  0.11368683772E-12  0.17120000000E+03  0.17120000000E+03 0.  0.
         13    1    1    2    0    0  0.19598822475E+02 -0.26491024091E+02  0.11835752506E+03  0.12285928171E+03  0.10566000000E+00 0. -1.
        994    1    1    2    0    0 -0.20708528676E+02  0.73789496284E+01  0.61879194359E+01  0.17271659563E+03  0.17120000000E+03 0.  0.
        998    1    1    2    0    0  0.11097062014E+01  0.19112074463E+02  0.13754545518E+04  0.13756241227E+04  0.10000000000E+02 0. -1.
</event>
<event>
 5    1  0.9130022E-009  0.3736220E+03  0.7957747E-01  0.3479409E+00
         13   -1    0    0    0    0  0.00000000000E+00  0.00000000000E+00  0.14999999963E+04  0.15000000000E+04  0.10566000000E+00 0.  1.
        994   -1    0    0    0    0 -0.00000000000E+00 -0.00000000000E+00  0.11368683772E-12  0.17120000000E+03  0.17120000000E+03 0.  0.
         13    1    1    2    0    0  0.19313538740E+02  0.52895378643E+02  0.28563414080E+03  0.29113194159E+03  0.10566000000E+00 0.  1.
        994    1    1    2    0    0  0.16615656404E+02  0.20989408803E+01  0.83465273388E+01  0.17221959850E+03  0.17120000000E+03 0.  0.
        998    1    1    2    0    0 -0.35929195144E+02 -0.54994319523E+02  0.12060193281E+04  0.12078484599E+04  0.10000000000E+02 0.  1.
</event>
<event>
 5    1  0.9130022E-009  0.3826353E+03  0.7957747E-01  0.3439763E+00
         13   -1    0    0    0    0  0.00000000000E+00  0.00000000000E+00  0.14999999963E+04  0.15000000000E+04  0.10566000000E+00 0.  1.
        994   -1    0    0    0    0 -0.00000000000E+00 -0.00000000000E+00  0.11368683772E-12  0.17120000000E+03  0.17120000000E+03 0.  0.
         13    1    1    2    0    0  0.96102582468E+01  0.23741047349E+02  0.10666678465E+03  0.10969871697E+03  0.10566000000E+00 0.  1.
        994    1    1    2    0    0  0.30511721904E+01 -0.32825226152E+02  0.64188289487E+01  0.17446330986E+03  0.17120000000E+03 0.  0.
        998    1    1    2    0    0 -0.12661430437E+02  0.90841788030E+01  0.13869143827E+04  0.13870379732E+04  0.10000000000E+02 0.  1.
</event>
<event>
 5    1  0.9130022E-009  0.3816470E+03  0.7957747E-01  0.3444018E+00
         13   -1    0    0    0    0  0.00000000000E+00  0.00000000000E+00  0.14999999963E+04  0.15000000000E+04  0.10566000000E+00 0. -1.
        994   -1    0    0    0    0 -0.00000000000E+00 -0.00000000000E+00  0.11368683772E-12  0.17120000000E+03  0.17120000000E+03 0.  0.
         13    1    1    2    0    0 -0.50890757192E+01 -0.10771501726E+02  0.19827820638E+02  0.23131743912E+02  0.10566000000E+00 0. -1.
        994    1    1    2    0    0  0.47213598590E+01  0.13293436112E+02  0.39659941518E+01  0.17182600441E+03  0.17120000000E+03 0.  0.
        998    1    1    2    0    0  0.36771586023E+00 -0.25219343856E+01  0.14762061815E+04  0.14762422517E+04  0.10000000000E+02 0. -1.
</event>
<event>
 5    1  0.9130022E-009  0.3817861E+03  0.7957747E-01  0.3443418E+00
         13   -1    0    0    0    0  0.00000000000E+00  0.00000000000E+00  0.14999999963E+04  0.15000000000E+04  0.10566000000E+00 0.  1.
        994   -1    0    0    0    0 -0.00000000000E+00 -0.00000000000E+00  0.11368683772E-12  0.17120000000E+03  0.17120000000E+03 0.  0.
         13    1    1    2    0    0 -0.48625910712E+01 -0.17876913222E+02  0.59046007914E+02  0.61884335924E+02  0.10566000000E+00 0.  1.
        994    1    1    2    0    0 -0.25957808126E+01 -0.16112575040E+02  0.41199160032E+01  0.17202548317E+03  0.17120000000E+03 0.  0.
        998    1    1    2    0    0  0.74583718838E+01  0.33989488261E+02  0.14368340724E+04  0.14372901809E+04  0.10000000000E+02 0.  1.
</event>
<event>
 5    1  0.9130022E-009  0.3689173E+03  0.7957747E-01  0.3500881E+00
         13   -1    0    0    0    0  0.00000000000E+00  0.00000000000E+00  0.14999999963E+04  0.15000000000E+04  0.10566000000E+00 0. -1.
        994   -1    0    0    0    0 -0.00000000000E+00 -0.00000000000E+00  0.11368683772E-12  0.17120000000E+03  0.17120000000E+03 0.  0.
         13    1    1    2    0    0 -0.14313061351E+02  0.53967713369E+02  0.16443293863E+03  0.17365362156E+03  0.10566000000E+00 0. -1.
        994    1    1    2    0    0  0.34739161414E+02 -0.79907869270E+00  0.14584430514E+02  0.17529858378E+03  0.17120000000E+03 0.  0.
        998    1    1    2    0    0 -0.20426100064E+02 -0.53168634677E+02  0.13209826271E+04  0.13222477947E+04  0.10000000000E+02 0. -1.
</event>
<event>
 5    1  0.9130022E-009  0.3847322E+03  0.7957747E-01  0.3430809E+00
         13   -1    0    0    0    0  0.00000000000E+00  0.00000000000E+00  0.14999999963E+04  0.15000000000E+04  0.10566000000E+00 0. -1.
        994   -1    0    0    0    0 -0.00000000000E+00 -0.00000000000E+00  0.11368683772E-12  0.17120000000E+03  0.17120000000E+03 0.  0.
         13    1    1    2    0    0 -0.26113793640E+01 -0.15746754974E+02  0.68314860925E+02  0.70154907039E+02  0.10566000000E+00 0. -1.
        994    1    1    2    0    0 -0.82588621937E+00  0.19638647142E+02  0.30359054081E+01  0.17235142956E+03  0.17120000000E+03 0.  0.
        998    1    1    2    0    0  0.34372655833E+01 -0.38918921679E+01  0.14286492299E+04  0.14286936634E+04  0.10000000000E+02 0. -1.
</event>
<event>
 5    1  0.9437288E-009  0.3850719E+03  0.7957747E-01  0.3429367E+00
         13   -1    0    0    0    0  0.00000000000E+00  0.00000000000E+00  0.14999999963E+04  0.15000000000E+04  0.10566000000E+00 0.  1.
        994   -1    0    0    0    0 -0.00000000000E+00 -0.00000000000E+00  0.11368683772E-12  0.17120000000E+03  0.17120000000E+03 0.  0.
         13    1    1    2    0    0 -0.93009393866E+01 -0.43984747910E+01  0.32849987526E+02  0.34423638658E+02  0.10566000000E+00 0.  1.
        994    1    1    2    0    0  0.72454399355E+01  0.37136740498E+01  0.18124414083E+01  0.17140307091E+03  0.17120000000E+03 0.  0.
        998    1    1    2    0    0  0.20554994511E+01  0.68480074123E+00  0.14653375673E+04  0.14653732904E+04  0.10000000000E+02 0.  1.
</event>
<event>
 5    1  0.9130022E-009  0.3830585E+03  0.7957747E-01  0.3437948E+00
         13   -1    0    0    0    0  0.00000000000E+00  0.00000000000E+00  0.14999999963E+04  0.15000000000E+04  0.10566000000E+00 0.  1.
        994   -1    0    0    0    0 -0.00000000000E+00 -0.00000000000E+00  0.11368683772E-12  0.17120000000E+03  0.17120000000E+03 0.  0.
         13    1    1    2    0    0  0.35051146451E+02 -0.13495127455E+02  0.22037335836E+03  0.22355117887E+03  0.10566000000E+00 0.  1.
        994    1    1    2    0    0 -0.43899898177E+02  0.84566020066E+01  0.92401939673E+01  0.17718221232E+03  0.17120000000E+03 0.  0.
        998    1    1    2    0    0  0.88487517256E+01  0.50385254481E+01  0.12703864439E+04  0.12704666088E+04  0.10000000000E+02 0.  1.
</event>
<event>
 5    1  0.9130022E-009  0.3760271E+03  0.7957747E-01  0.3468642E+00
         13   -1    0    0    0    0  0.00000000000E+00  0.00000000000E+00  0.14999999963E+04  0.15000000000E+04  0.10566000000E+00 0. -1.
        994   -1    0    0    0    0 -0.00000000000E+00 -0.00000000000E+00  0.11368683772E-12  0.17120000000E+03  0.17120000000E+03 0.  0.
         13    1    1    2    0    0  0.43051124523E+02 -0.20548084381E+02  0.76145480811E+02  0.89854151303E+02  0.10566000000E+00 0. -1.
        994    1    1    2    0    0 -0.26160598472E+02  0.11375842834E+02  0.17073716988E+02  0.17439821824E+03  0.17120000000E+03 0.  0.
        998    1    1    2    0    0 -0.16890526051E+02  0.91722415474E+01  0.14067807985E+04  0.14069476305E+04  0.10000000000E+02 0. -1.
</event>
<event>
 5    1  0.9130022E-009  0.3774901E+03  0.7957747E-01  0.3462160E+00
         13   -1    0    0    0    0  0.00000000000E+00  0.00000000000E+00  0.14999999963E+04  0.15000000000E+04  0.10566000000E+00 0. -1.
        994   -1    0    0    0    0 -0.00000000000E+00 -0.00000000000E+00  0.11368683772E-12  0.17120000000E+03  0.17120000000E+03 0.  0.
         13    1    1    2    0    0 -0.16562638170E+02  0.74652614192E+01  0.29134208974E+02  0.34334594913E+02  0.10566000000E+00 0. -1.
        994    1    1    2    0    0  0.85641105279E+01  0.13920548330E+02  0.63064661764E+01  0.17209397773E+03  0.17120000000E+03 0.  0.
        998    1    1    2    0    0  0.79985276425E+01 -0.21385809749E+02  0.14645593211E+04  0.14647714274E+04  0.10000000000E+02 0. -1.
</event>
<event>
 5    1  0.9130022E-009  0.3806355E+03  0.7957747E-01  0.3448396E+00
         13   -1    0    0    0    0  0.00000000000E+00  0.00000000000E+00  0.14999999963E+04  0.15000000000E+04  0.10566000000E+00 0.  1.
        994   -1    0    0    0    0 -0.00000000000E+00 -0.00000000000E+00  0.11368683772E-12  0.17120000000E+03  0.17120000000E+03 0.  0.
         13    1    1    2    0    0 -0.17620873826E+02 -0.34735705558E+02  0.18662490789E+03  0.19064609055E+03  0.10566000000E+00 0.  1.
        994    1    1    2    0    0  0.19116396494E+02  0.24478007173E+02  0.70372281328E+01  0.17413664758E+03  0.17120000000E+03 0.  0.
        998    1    1    2    0    0 -0.14955226678E+01  0.10257698385E+02  0.13063378603E+04  0.13064172619E+04  0.10000000000E+02 0.  1.
</event>
<event>
 5    1  0.9130022E-009  0.3698819E+03  0.7957747E-01  0.3496434E+00
         13   -1    0    0    0    0  0.00000000000E+00  0.00000000000E+00  0.14999999963E+04  0.15000000000E+04  0.10566000000E+00 0.  1.
        994   -1    0    0    0    0 -0.00000000000E+00 -0.00000000000E+00  0.11368683772E-12  0.17120000000E+03  0.17120000000E+03 0.  0.
         13    1    1    2    0    0  0.20901179437E+02  0.92695719904E+02  0.50556603313E+03  0.51441848801E+03  0.10566000000E+00 0.  1.
        994    1    1    2    0    0  0.26405818399E+02 -0.59894666209E+02  0.24301188996E+02  0.18489084908E+03  0.17120000000E+03 0.  0.
        998    1    1    2    0    0 -0.47306997836E+02 -0.32801053695E+02  0.97013277416E+03  0.97189066291E+03  0.10000000000E+02 0.  1.
</event>
<event>
 5    1  0.9130022E-009  0.3794632E+03  0.7957747E-01  0.3453499E+00
         13   -1    0    0    0    0  0.00000000000E+00  0.00000000000E+00  0.14999999963E+04  0.15000000000E+04  0.10566000000E+00 0.  1.
        994   -1    0    0    0    0 -0.00000000000E+00 -0.00000000000E+00  0.11368683772E-12  0.17120000000E+03  0.17120000000E+03 0.  0.
         13    1    1    2    0    0 -0.23223652289E+02  0.10382089120E+02  0.77152441435E+02  0.81238144880E+02  0.10566000000E+00 0.  1.
        994    1    1    2    0    0  0.89017828208E+01  0.19125211184E+02  0.58960790700E+01  0.17259553641E+03  0.17120000000E+03 0.  0.
        998    1    1    2    0    0  0.14321869468E+02 -0.29507300304E+02  0.14169514758E+04  0.14173663187E+04  0.10000000000E+02 0.  1.
</event>
<event>
 5    1  0.9130022E-009  0.3726995E+03  0.7957747E-01  0.3483576E+00
         13   -1    0    0    0    0  0.00000000000E+00  0.00000000000E+00  0.14999999963E+04  0.15000000000E+04  0.10566000000E+00 0. -1.
        994   -1    0    0    0    0 -0.00000000000E+00 -0.00000000000E+00  0.11368683772E-12  0.17120000000E+03  0.17120000000E+03 0.  0.
         13    1    1    2    0    0 -0.61086749128E+02 -0.67287981450E+02  0.23655305301E+03  0.25340998682E+03  0.10566000000E+00 0. -1.
        994    1    1    2    0    0  0.64050356974E+02  0.10271271601E+03  0.66056200347E+02  0.21982996125E+03  0.17120000000E+03 0.  0.
        998    1    1    2    0    0 -0.29636078462E+01 -0.35424734563E+02  0.11973907429E+04  0.11979600519E+04  0.10000000000E+02 0. -1.
</event>
<event>
 5    1  0.9130022E-009  0.3860703E+03  0.7957747E-01  0.3425146E+00
         13   -1    0    0    0    0  0.00000000000E+00  0.00000000000E+00  0.14999999963E+04  0.15000000000E+04  0.10566000000E+00 0.  1.
        994   -1    0    0    0    0 -0.00000000000E+00 -0.00000000000E+00  0.11368683772E-12  0.17120000000E+03  0.17120000000E+03 0.  0.
         13    1    1    2    0    0 -0.50747059358E+01  0.86701609596E+01  0.59574561161E+02  0.60415758151E+02  0.10566000000E+00 0.  1.
        994    1    1    2    0    0 -0.54101430647E+01  0.26135910311E+02  0.34377706500E+01  0.17330208805E+03  0.17120000000E+03 0.  0.
        998    1    1    2    0    0  0.10484849000E+02 -0.34806071271E+02  0.14369876645E+04  0.14374821538E+04  0.10000000000E+02 0.  1.
</event>
<event>
 5    1  0.9130022E-009  0.3856335E+03  0.7957747E-01  0.3426990E+00
         13   -1    0    0    0    0  0.00000000000E+00  0.00000000000E+00  0.14999999963E+04  0.15000000000E+04  0.10566000000E+00 0. -1.
        994   -1    0    0    0    0 -0.00000000000E+00 -0.00000000000E+00  0.11368683772E-12  0.17120000000E+03  0.17120000000E+03 0.  0.
         13    1    1    2    0    0  0.11329435227E+02  0.65975116876E+00  0.53909912907E+02  0.55091571477E+02  0.10566000000E+00 0. -1.
        994    1    1    2    0    0  0.68181592260E+01 -0.11428424912E+02  0.18973561356E+01  0.17172692320E+03  0.17120000000E+03 0.  0.
        998    1    1    2    0    0 -0.18147594453E+02  0.10768673743E+02  0.14441927272E+04  0.14443815053E+04  0.10000000000E+02 0. -1.
</event>
<event>
 5    1  0.9130022E-009  0.3842549E+03  0.7957747E-01  0.3432839E+00
         13   -1    0    0    0    0  0.00000000000E+00  0.00000000000E+00  0.14999999963E+04  0.15000000000E+04  0.10566000000E+00 0. -1.
        994   -1    0    0    0    0 -0.00000000000E+00 -0.00000000000E+00  0.11368683772E-12  0.17120000000E+03  0.17120000000E+03 0.  0.
         13    1    1    2    0    0 -0.12434465504E+01  0.26686892765E+02  0.15738678506E+03  0.15963817739E+03  0.10566000000E+00 0. -1.
        994    1    1    2    0    0  0.30250145673E+01 -0.29865314514E+02  0.49767236282E+01  0.17388299371E+03  0.17120000000E+03 0.  0.
        998    1    1    2    0    0 -0.17815680168E+01  0.31784217483E+01  0.13376364876E+04  0.13376788289E+04  0.10000000000E+02 0. -1.
</event>
<event>
 5    1  0.9130022E-009  0.3834086E+03  0.7957747E-01  0.3436450E+00
         13   -1    0    0    0    0  0.00000000000E+00  0.00000000000E+00  0.14999999963E+04  0.15000000000E+04  0.10566000000E+00 0. -1.
        994   -1    0    0    0    0 -0.00000000000E+00 -0.00000000000E+00  0.11368683772E-12  0.17120000000E+03  0.17120000000E+03 0.  0.
         13    1    1    2    0    0 -0.47430071311E+02  0.14305243976E+03  0.88939811344E+03  0.90207684126E+03  0.10566000000E+00 0. -1.
        994    1    1    2    0    0  0.44305203531E+02 -0.16831432161E+03  0.10999604814E+03  0.26777085824E+03  0.17120000000E+03 0.  0.
        998    1    1    2    0    0  0.31248677807E+01  0.25261881847E+02  0.50060583470E+03  0.50135230049E+03  0.10000000000E+02 0. -1.
</event>
<event>
 5    1  0.9130022E-009  0.3757568E+03  0.7957747E-01  0.3469845E+00
         13   -1    0    0    0    0  0.00000000000E+00  0.00000000000E+00  0.14999999963E+04  0.15000000000E+04  0.10566000000E+00 0.  1.
        994   -1    0    0    0    0 -0.00000000000E+00 -0.00000000000E+00  0.11368683772E-12  0.17120000000E+03  0.17120000000E+03 0.  0.
         13    1    1    2    0    0  0.51622502972E+01 -0.18998163991E+02  0.28939629311E+02  0.35001319574E+02  0.10566000000E+00 0.  1.
        994    1    1    2    0    0 -0.84996465618E+01  0.17444981210E+01  0.65459355849E+01  0.17154467796E+03  0.17120000000E+03 0.  0.
        998    1    1    2    0    0  0.33373962647E+01  0.17253665870E+02  0.14645144314E+04  0.14646540025E+04  0.10000000000E+02 0.  1.
</event>
<event>
 5    1  0.9130022E-009  0.3716416E+03  0.7957747E-01  0.3488380E+00
         13   -1    0    0    0    0  0.00000000000E+00  0.00000000000E+00  0.14999999963E+04  0.15000000000E+04  0.10566000000E+00 0.  1.
        994   -1    0    0    0    0 -0.00000000000E+00 -0.00000000000E+00  0.11368683772E-12  0.17120000000E+03  0.17120000000E+03 0.  0.
         13    1    1    2    0    0 -0.20514429137E+02 -0.59913118888E+01  0.23897896391E+02  0.32060228273E+02  0.10566000000E+00 0.  1.
        994    1    1    2    0    0  0.54064935126E+01  0.16201428774E+02  0.94171586201E+01  0.17230739782E+03  0.17120000000E+03 0.  0.
        998    1    1    2    0    0  0.15107935625E+02 -0.10210116885E+02  0.14666849413E+04  0.14668323739E+04  0.10000000000E+02 0.  1.
</event>
<event>
 5    1  0.9130022E-009  0.3834443E+03  0.7957747E-01  0.3436297E+00
         13   -1    0    0    0    0  0.00000000000E+00  0.00000000000E+00  0.14999999963E+04  0.15000000000E+04  0.10566000000E+00 0.  1.
        994   -1    0    0    0    0 -0.00000000000E+00 -0.00000000000E+00  0.11368683772E-12  0.17120000000E+03  0.17120000000E+03 0.  0.
         13    1    1    2    0    0 -0.17657037985E+02 -0.69616115795E+01  0.73010032374E+02  0.75436801479E+02  0.10566000000E+00 0.  1.
        994    1    1    2    0    0  0.15775298377E+02  0.16930502607E+01  0.32369532889E+01  0.17196407859E+03  0.17120000000E+03 0.  0.
        998    1    1    2    0    0  0.18817396085E+01  0.52685613188E+01  0.14237530106E+04  0.14237991199E+04  0.10000000000E+02 0.  1.
</event>
<event>
 5    1  0.9130022E-009  0.3846890E+03  0.7957747E-01  0.3430992E+00
         13   -1    0    0    0    0  0.00000000000E+00  0.00000000000E+00  0.14999999963E+04  0.15000000000E+04  0.10566000000E+00 0. -1.
        994   -1    0    0    0    0 -0.00000000000E+00 -0.00000000000E+00  0.11368683772E-12  0.17120000000E+03  0.17120000000E+03 0.  0.
         13    1    1    2    0    0  0.28035250764E+01 -0.10556303415E+02  0.31734578890E+02  0.33561733508E+02  0.10566000000E+00 0. -1.
        994    1    1    2    0    0 -0.17319163568E+02  0.13228227942E+02  0.33496510761E+01  0.17261401914E+03  0.17120000000E+03 0.  0.
        998    1    1    2    0    0  0.14515638492E+02 -0.26719245268E+01  0.14649157663E+04  0.14650242474E+04  0.10000000000E+02 0. -1.
</event>
<event>
 5    1  0.9130022E-009  0.3841253E+03  0.7957747E-01  0.3433390E+00
         13   -1    0    0    0    0  0.00000000000E+00  0.00000000000E+00  0.14999999963E+04  0.15000000000E+04  0.10566000000E+00 0. -1.
        994   -1    0    0    0    0 -0.00000000000E+00 -0.00000000000E+00  0.11368683772E-12  0.17120000000E+03  0.17120000000E+03 0.  0.
         13    1    1    2    0    0 -0.14255801183E+02  0.13162693296E+02  0.91473860991E+02  0.93509158754E+02  0.10566000000E+00 0. -1.
        994    1    1    2    0    0  0.12532398645E+02 -0.29929146427E+01  0.26127568338E+01  0.17170406242E+03  0.17120000000E+03 0.  0.
        998    1    1    2    0    0  0.17234025373E+01 -0.10169778653E+02  0.14059133785E+04  0.14059867788E+04  0.10000000000E+02 0. -1.
</event>
<event>
 5    1  0.9130022E-009  0.3857600E+03  0.7957747E-01  0.3426455E+00
         13   -1    0    0    0    0  0.00000000000E+00  0.00000000000E+00  0.14999999963E+04  0.15000000000E+04  0.10566000000E+00 0. -1.
        994   -1    0    0    0    0 -0.00000000000E+00 -0.00000000000E+00  0.11368683772E-12  0.17120000000E+03  0.17120000000E+03 0.  0.
         13    1    1    2    0    0 -0.10388126229E+02  0.18224342229E+01  0.44909637321E+02  0.46131563179E+02  0.10566000000E+00 0. -1.
        994    1    1    2    0    0  0.36809348635E+01 -0.17681405799E+02  0.23240609723E+01  0.17216568372E+03  0.17120000000E+03 0.  0.
        998    1    1    2    0    0  0.67071913653E+01  0.15858971576E+02  0.14527662980E+04  0.14529027531E+04  0.10000000000E+02 0. -1.
</event>
<event>
 5    1  0.9130022E-009  0.3731131E+03  0.7957747E-01  0.3481705E+00
         13   -1    0    0    0    0  0.00000000000E+00  0.00000000000E+00  0.14999999963E+04  0.15000000000E+04  0.10566000000E+00 0.  1.
        994   -1    0    0    0    0 -0.00000000000E+00 -0.00000000000E+00  0.11368683772E-12  0.17120000000E+03  0.17120000000E+03 0.  0.
         13    1    1    2    0    0 -0.44963976389E+02  0.42827467187E+01  0.12942125653E+03  0.13707652570E+03  0.10566000000E+00 0.  1.
        994    1    1    2    0    0  0.30373127679E+02  0.82130899786E+01  0.11045116890E+02  0.17441736249E+03  0.17120000000E+03 0.  0.
        998    1    1    2    0    0  0.14590848710E+02 -0.12495836697E+02  0.13595336229E+04  0.13597061118E+04  0.10000000000E+02 0.  1.
</event>
<event>
 5    1  0.9130022E-009  0.3837067E+03  0.7957747E-01  0.3435176E+00
         13   -1    0    0    0    0  0.00000000000E+00  0.00000000000E+00  0.14999999963E+04  0.15000000000E+04  0.10566000000E+00 0. -1.
        994   -1    0    0    0    0 -0.00000000000E+00 -0.00000000000E+00  0.11368683772E-12  0.17120000000E+03  0.17120000000E+03 0.  0.
         13    1    1    2    0    0  0.68408331268E+01 -0.14947575415E+02  0.59490886525E+02  0.61720367401E+02  0.10566000000E+00 0. -1.
        994    1    1    2    0    0 -0.64433541162E+01  0.67189745904E+01  0.25598686393E+01  0.17147202209E+03  0.17120000000E+03 0.  0.
        998    1    1    2    0    0 -0.39747901057E+00  0.82286008243E+01  0.14379492411E+04  0.14380076105E+04  0.10000000000E+02 0. -1.
</event>
<event>
 5    1  0.9130022E-009  0.3824488E+03  0.7957747E-01  0.3440565E+00
         13   -1    0    0    0    0  0.00000000000E+00  0.00000000000E+00  0.14999999963E+04  0.15000000000E+04  0.10566000000E+00 0.  1.
        994   -1    0    0    0    0 -0.00000000000E+00 -0.00000000000E+00  0.11368683772E-12  0.17120000000E+03  0.17120000000E+03 0.  0.
         13    1    1    2    0    0 -0.20189051056E+01  0.40193700984E+02  0.41042621873E+02  0.57481453973E+02  0.10566000000E+00 0.  1.
        994    1    1    2    0    0 -0.83955584877E+01 -0.98180642123E+01  0.18289463716E+02  0.17265811383E+03  0.17120000000E+03 0.  0.
        998    1    1    2    0    0  0.10414463593E+02 -0.30375636771E+02  0.14406679107E+04  0.14410604322E+04  0.10000000000E+02 0.  1.
</event>
<event>
 5    1  0.9130022E-009  0.3777900E+03  0.7957747E-01  0.3460838E+00
         13   -1    0    0    0    0  0.00000000000E+00  0.00000000000E+00  0.14999999963E+04  0.15000000000E+04  0.10566000000E+00 0. -1.
        994   -1    0    0    0    0 -0.00000000000E+00 -0.00000000000E+00  0.11368683772E-12  0.17120000000E+03  0.17120000000E+03 0.  0.
         13    1    1    2    0    0  0.15586752228E+02 -0.19931010258E+02  0.60157262688E+02  0.65261776202E+02  0.10566000000E+00 0. -1.
        994    1    1    2    0    0 -0.12815809583E+02  0.37115342768E+01  0.58526153481E+01  0.17181883939E+03  0.17120000000E+03 0.  0.
        998    1    1    2    0    0 -0.27709426449E+01  0.16219475981E+02  0.14339901182E+04  0.14341193844E+04  0.10000000000E+02 0. -1.
</event>
<event>
 5    1  0.9130022E-009  0.3728413E+03  0.7957747E-01  0.3482934E+00
         13   -1    0    0    0    0  0.00000000000E+00  0.00000000000E+00  0.14999999963E+04  0.15000000000E+04  0.10566000000E+00 0.  1.
        994   -1    0    0    0    0 -0.00000000000E+00 -0.00000000000E+00  0.11368683772E-12  0.17120000000E+03  0.17120000000E+03 0.  0.
         13    1    1    2    0    0 -0.14615550405E+03 -0.56392545613E+02  0.77646993067E+03  0.79211559444E+03  0.10566000000E+00 0.  1.
        994    1    1    2    0    0  0.13508684140E+03  0.63193420700E+02  0.88256098024E+02  0.24359893673E+03  0.17120000000E+03 0.  0.
        998    1    1    2    0    0  0.11068662652E+02 -0.68008750869E+01  0.63527396759E+03  0.63548546883E+03  0.10000000000E+02 0.  1.
</event>
<event>
 5    1  0.9130022E-009  0.3809506E+03  0.7957747E-01  0.3447030E+00
         13   -1    0    0    0    0  0.00000000000E+00  0.00000000000E+00  0.14999999963E+04  0.15000000000E+04  0.10566000000E+00 0. -1.
        994   -1    0    0    0    0 -0.00000000000E+00 -0.00000000000E+00  0.11368683772E-12  0.17120000000E+03  0.17120000000E+03 0.  0.
         13    1    1    2    0    0  0.11555859248E+02 -0.10036195969E+02  0.30189535549E+02  0.33847929526E+02  0.10566000000E+00 0. -1.
        994    1    1    2    0    0 -0.63137295291E+01  0.15689875563E+02  0.46078537066E+01  0.17209505423E+03  0.17120000000E+03 0.  0.
        998    1    1    2    0    0 -0.52421297187E+01 -0.56536795946E+01  0.14652026070E+04  0.14652570162E+04  0.10000000000E+02 0. -1.
</event>
<event>
 5    1  0.9130022E-009  0.3830944E+03  0.7957747E-01  0.3437794E+00
         13   -1    0    0    0    0  0.00000000000E+00  0.00000000000E+00  0.14999999963E+04  0.15000000000E+04  0.10566000000E+00 0. -1.
        994   -1    0    0    0    0 -0.00000000000E+00 -0.00000000000E+00  0.11368683772E-12  0.17120000000E+03  0.17120000000E+03 0.  0.
         13    1    1    2    0    0 -0.76470339727E+01  0.68671509630E+01  0.20906981113E+02  0.23296950749E+02  0.10566000000E+00 0. -1.
        994    1    1    2    0    0 -0.86652296680E+01  0.11887569232E+02  0.32955956635E+01  0.17186244924E+03  0.17120000000E+03 0.  0.
        998    1    1    2    0    0  0.16312263641E+02 -0.18754720195E+02  0.14757974195E+04  0.14760406000E+04  0.10000000000E+02 0. -1.
</event>
<event>
 5    1  0.9130022E-009  0.3807842E+03  0.7957747E-01  0.3447751E+00
         13   -1    0    0    0    0  0.00000000000E+00  0.00000000000E+00  0.14999999963E+04  0.15000000000E+04  0.10566000000E+00 0. -1.
        994   -1    0    0    0    0 -0.00000000000E+00 -0.00000000000E+00  0.11368683772E-12  0.17120000000E+03  0.17120000000E+03 0.  0.
         13    1    1    2    0    0 -0.28760380299E+02  0.60942828531E+01  0.11477025497E+03  0.11847583022E+03  0.10566000000E+00 0. -1.
        994    1    1    2    0    0  0.17954955695E+02  0.21713759011E+01  0.48291987642E+01  0.17222037181E+03  0.17120000000E+03 0.  0.
        998    1    1    2    0    0  0.10805424604E+02 -0.82656587542E+01  0.13804005425E+04  0.13805037980E+04  0.10000000000E+02 0. -1.
</event>
<event>
 5    1  0.9130022E-009  0.3843965E+03  0.7957747E-01  0.3432236E+00
         13   -1    0    0    0    0  0.00000000000E+00  0.00000000000E+00  0.14999999963E+04  0.15000000000E+04  0.10566000000E+00 0.  1.
        994   -1    0    0    0    0 -0.00000000000E+00 -0.00000000000E+00  0.11368683772E-12  0.17120000000E+03  0.17120000000E+03 0.  0.
         13    1    1    2    0    0 -0.99748933392E+01  0.39539225548E+01  0.29414131404E+02  0.31310290497E+02  0.10566000000E+00 0.  1.
        994    1    1    2    0    0  0.73730262425E+01 -0.11085449097E+00  0.21092466655E+01  0.17137170924E+03  0.17120000000E+03 0.  0.
        998    1    1    2    0    0  0.26018670967E+01 -0.38430680638E+01  0.14684766182E+04  0.14685180003E+04  0.10000000000E+02 0.  1.
</event>
<event>
 5    1  0.9130022E-009  0.3730406E+03  0.7957747E-01  0.3482032E+00
         13   -1    0    0    0    0  0.00000000000E+00  0.00000000000E+00  0.14999999963E+04  0.15000000000E+04  0.10566000000E+00 0. -1.
        994   -1    0    0    0    0 -0.00000000000E+00 -0.00000000000E+00  0.11368683772E-12  0.17120000000E+03  0.17120000000E+03 0.  0.
         13    1    1    2    0    0 -0.21889828086E+02  0.83207525797E+02  0.30281933253E+03  0.31480504482E+03  0.10566000000E+00 0. -1.
        994    1    1    2    0    0  0.33521829047E+02 -0.11176436374E+03  0.55814554803E+02  0.21456861502E+03  0.17120000000E+03 0.  0.
        998    1    1    2    0    0 -0.11632000961E+02  0.28556837943E+02  0.11413661089E+04  0.11418263402E+04  0.10000000000E+02 0. -1.
</event>
<event>
 5    1  0.9130022E-009  0.3836114E+03  0.7957747E-01  0.3435583E+00
         13   -1    0    0    0    0  0.00000000000E+00  0.00000000000E+00  0.14999999963E+04  0.15000000000E+04  0.10566000000E+00 0. -1.
        994   -1    0    0    0    0 -0.00000000000E+00 -0.00000000000E+00  0.11368683772E-12  0.17120000000E+03  0.17120000000E+03 0.  0.
         13    1    1    2    0    0  0.16850218230E+02 -0.58210073133E+01  0.66608299398E+02  0.68952814977E+02  0.10566000000E+00 0. -1.
        994    1    1    2    0    0 -0.12001413769E+02  0.11507007441E+02  0.32348913528E+01  0.17203589647E+03  0.17120000000E+03 0.  0.
        998    1    1    2    0    0 -0.48488044607E+01 -0.56860001278E+01  0.14301568055E+04  0.14302112886E+04  0.10000000000E+02 0. -1.
</event>
<event>
 5    1  0.9130022E-009  0.3800870E+03  0.7957747E-01  0.3450780E+00
         13   -1    0    0    0    0  0.00000000000E+00  0.00000000000E+00  0.14999999963E+04  0.15000000000E+04  0.10566000000E+00 0.  1.
        994   -1    0    0    0    0 -0.00000000000E+00 -0.00000000000E+00  0.11368683772E-12  0.17120000000E+03  0.17120000000E+03 0.  0.
         13    1    1    2    0    0 -0.19230335705E+02 -0.32451679658E+02  0.16811505348E+03  0.17229509481E+03  0.10566000000E+00 0.  1.
        994    1    1    2    0    0  0.43810686645E+00  0.30185099047E+02  0.71408232704E+01  0.17398782572E+03  0.17120000000E+03 0.  0.
        998    1    1    2    0    0  0.18792228839E+02  0.22665806108E+01  0.13247441195E+04  0.13249170795E+04  0.10000000000E+02 0.  1.
</event>
<event>
 5    1  0.9130022E-009  0.3843306E+03  0.7957747E-01  0.3432516E+00
         13   -1    0    0    0    0  0.00000000000E+00  0.00000000000E+00  0.14999999963E+04  0.15000000000E+04  0.10566000000E+00 0. -1.
        994   -1    0    0    0    0 -0.00000000000E+00 -0.00000000000E+00  0.11368683772E-12  0.17120000000E+03  0.17120000000E+03 0.  0.
         13    1    1    2    0    0  0.13953948397E+02  0.62576793198E+01  0.60702998701E+02  0.62599811835E+02  0.10566000000E+00 0. -1.
        994    1    1    2    0    0 -0.31853781360E+01 -0.71306565540E+01  0.21639106925E+01  0.17139170168E+03  0.17120000000E+03 0.  0.
        998    1    1    2    0    0 -0.10768570261E+02  0.87297723421E+00  0.14371330869E+04  0.14372084865E+04  0.10000000000E+02 0. -1.
</event>
<event>
 5    1  0.9130022E-009  0.3785020E+03  0.7957747E-01  0.3457707E+00
         13   -1    0    0    0    0  0.00000000000E+00  0.00000000000E+00  0.14999999963E+04  0.15000000000E+04  0.10566000000E+00 0. -1.
        994   -1    0    0    0    0 -0.00000000000E+00 -0.00000000000E+00  0.11368683772E-12  0.17120000000E+03  0.17120000000E+03 0.  0.
         13    1    1    2    0    0  0.60036721729E+02  0.15808139486E+03  0.94866610327E+03  0.96361897139E+03  0.10566000000E+00 0. -1.
        994    1    1    2    0    0 -0.66042328787E+02 -0.15367782954E+03  0.10549298711E+03  0.26156581354E+03  0.17120000000E+03 0.  0.
        998    1    1    2    0    0  0.60056070582E+01 -0.44035653222E+01  0.44584090590E+03  0.44601521507E+03  0.10000000000E+02 0.  0.
</event>
<event>
 5    1  0.9130022E-009  0.3859952E+03  0.7957747E-01  0.3425462E+00
         13   -1    0    0    0    0  0.00000000000E+00  0.00000000000E+00  0.14999999963E+04  0.15000000000E+04  0.10566000000E+00 0. -1.
        994   -1    0    0    0    0 -0.00000000000E+00 -0.00000000000E+00  0.11368683772E-12  0.17120000000E+03  0.17120000000E+03 0.  0.
         13    1    1    2    0    0 -0.39018503230E+01 -0.12550302395E+02  0.79071960749E+02  0.80156850405E+02  0.10566000000E+00 0. -1.
        994    1    1    2    0    0  0.71245687534E+01  0.33164888982E+01  0.13393026698E+01  0.17138550788E+03  0.17120000000E+03 0.  0.
        998    1    1    2    0    0 -0.32227184304E+01  0.92338134972E+01  0.14195887329E+04  0.14196576417E+04  0.10000000000E+02 0. -1.
</event>
<event>
 5    1  0.9130022E-009  0.3846681E+03  0.7957747E-01  0.3431081E+00
         13   -1    0    0    0    0  0.00000000000E+00  0.00000000000E+00  0.14999999963E+04  0.15000000000E+04  0.10566000000E+00 0. -1.
        994   -1    0    0    0    0 -0.00000000000E+00 -0.00000000000E+00  0.11368683772E-12  0.17120000000E+03  0.17120000000E+03 0.  0.
         13    1    1    2    0    0 -0.10961204193E+02 -0.38015713071E+01  0.40677023075E+02  0.42299306284E+02  0.10566000000E+00 0. -1.
        994    1    1    2    0    0 -0.84073563615E+01 -0.72375029922E+01  0.22002730842E+01  0.17157315143E+03  0.17120000000E+03 0.  0.
        998    1    1    2    0    0  0.19368560554E+02  0.11039074299E+02  0.14571227001E+04  0.14573275423E+04  0.10000000000E+02 0. -1.
</event>
<event>
 5    1  0.9130022E-009  0.3853154E+03  0.7957747E-01  0.3428336E+00
         13   -1    0    0    0    0  0.00000000000E+00  0.00000000000E+00  0.14999999963E+04  0.15000000000E+04  0.10566000000E+00 0.  1.
        994   -1    0    0    0    0 -0.00000000000E+00 -0.00000000000E+00  0.11368683772E-12  0.17120000000E+03  0.17120000000E+03 0.  0.
         13    1    1    2    0    0 -0.18716926502E+02  0.44426826832E+01  0.10672878349E+03  0.10844862912E+03  0.10566000000E+00 0.  1.
        994    1    1    2    0    0  0.32013169861E+02 -0.44065078132E+01  0.49118817597E+01  0.17429236053E+03  0.17120000000E+03 0.  0.
        998    1    1    2    0    0 -0.13296243359E+02 -0.36174870028E-01  0.13883593310E+04  0.13884590104E+04  0.10000000000E+02 0.  1.
</event>
<event>
 5    1  0.9130022E-009  0.3769792E+03  0.7957747E-01  0.3464418E+00
         13   -1    0    0    0    0  0.00000000000E+00  0.00000000000E+00  0.14999999963E+04  0.15000000000E+04  0.10566000000E+00 0.  1.
        994   -1    0    0    0    0 -0.00000000000E+00 -0.00000000000E+00  0.11368683772E-12  0.17120000000E+03  0.17120000000E+03 0.  0.
         13    1    1    2    0    0  0.40778552264E+02 -0.22129019189E+02  0.20815706731E+03  0.21326499865E+03  0.10566000000E+00 0.  1.
        994    1    1    2    0    0 -0.16495530447E+02 -0.57063110934E+01  0.66952536004E+01  0.17221768472E+03  0.17120000000E+03 0.  0.
        998    1    1    2    0    0 -0.24283021817E+02  0.27835330283E+02  0.12851476754E+04  0.12857173166E+04  0.10000000000E+02 0.  1.
</event>
<event>
 5    1  0.9130022E-009  0.3784618E+03  0.7957747E-01  0.3457883E+00
         13   -1    0    0    0    0  0.00000000000E+00  0.00000000000E+00  0.14999999963E+04  0.15000000000E+04  0.10566000000E+00 0.  1.
        994   -1    0    0    0    0 -0.00000000000E+00 -0.00000000000E+00  0.11368683772E-12  0.17120000000E+03  0.17120000000E+03 0.  0.
         13    1    1    2    0    0 -0.19430468083E+02 -0.16044305049E+02  0.63665107048E+02  0.68470576409E+02  0.10566000000E+00 0.  1.
        994    1    1    2    0    0  0.54176565453E+01  0.13251779719E+02  0.56005777730E+01  0.17188882203E+03  0.17120000000E+03 0.  0.
        998    1    1    2    0    0  0.14012811538E+02  0.27925253295E+01  0.14307343115E+04  0.14308406016E+04  0.10000000000E+02 0.  1.
</event>
<event>
 5    1  0.9130022E-009  0.3825346E+03  0.7957747E-01  0.3440196E+00
         13   -1    0    0    0    0  0.00000000000E+00  0.00000000000E+00  0.14999999963E+04  0.15000000000E+04  0.10566000000E+00 0. -1.
        994   -1    0    0    0    0 -0.00000000000E+00 -0.00000000000E+00  0.11368683772E-12  0.17120000000E+03  0.17120000000E+03 0.  0.
         13    1    1    2    0    0  0.87777430518E+01  0.51770013230E+01  0.17012681567E+02  0.19831606438E+02  0.10566000000E+00 0. -1.
        994    1    1    2    0    0 -0.53892978881E+01 -0.58474197181E+01  0.30687974386E+01  0.17141206016E+03  0.17120000000E+03 0.  0.
        998    1    1    2    0    0 -0.33884451637E+01  0.67041839507E+00  0.14799185173E+04  0.14799563334E+04  0.10000000000E+02 0. -1.
</event>
<event>
 5    1  0.1075276E-008  0.3860373E+03  0.7957747E-01  0.3425285E+00
         13   -1    0    0    0    0  0.00000000000E+00  0.00000000000E+00  0.14999999963E+04  0.15000000000E+04  0.10566000000E+00 0. -1.
        994   -1    0    0    0    0 -0.00000000000E+00 -0.00000000000E+00  0.11368683772E-12  0.17120000000E+03  0.17120000000E+03 0.  0.
         13    1    1    2    0    0  0.96602211433E+01  0.69015740558E+01  0.63599540063E+02  0.64698255442E+02  0.10566000000E+00 0. -1.
        994    1    1    2    0    0 -0.70539796966E+01 -0.49406186171E+01  0.13591241003E+01  0.17142186430E+03  0.17120000000E+03 0.  0.
        998    1    1    2    0    0 -0.26062414467E+01 -0.19609554387E+01  0.14350413321E+04  0.14350798803E+04  0.10000000000E+02 0. -1.
</event>
<event>
 5    1  0.9130022E-009  0.2481812E+03  0.7957747E-01  0.4353261E+00
         13   -1    0    0    0    0  0.00000000000E+00  0.00000000000E+00  0.14999999963E+04  0.15000000000E+04  0.10566000000E+00 0. -1.
        994   -1    0    0    0    0 -0.00000000000E+00 -0.00000000000E+00  0.11368683772E-12  0.17120000000E+03  0.17120000000E+03 0.  0.
         13    1    1    2    0    0 -0.23709873422E+01 -0.12917460487E+03  0.19571376213E+02  0.13067038706E+03  0.10566000000E+00 0. -1.
        994    1    1    2    0    0  0.70121191137E+00  0.13513331688E+03  0.36614796535E+03  0.42618690449E+03  0.17120000000E+03 0.  0.
        998    1    1    2    0    0  0.16697754308E+01 -0.59587120082E+01  0.11142806547E+04  0.11143427084E+04  0.10000000000E+02 0. -1.
</event>
<event>
 5    1  0.9130022E-009  0.3850128E+03  0.7957747E-01  0.3429618E+00
         13   -1    0    0    0    0  0.00000000000E+00  0.00000000000E+00  0.14999999963E+04  0.15000000000E+04  0.10566000000E+00 0. -1.
        994   -1    0    0    0    0 -0.00000000000E+00 -0.00000000000E+00  0.11368683772E-12  0.17120000000E+03  0.17120000000E+03 0.  0.
         13    1    1    2    0    0  0.52588838433E+01  0.93725166299E+01  0.34962855133E+02  0.36577483926E+02  0.10566000000E+00 0. -1.
        994    1    1    2    0    0 -0.26870110635E+00 -0.11212630696E+02  0.20375668422E+01  0.17157909828E+03  0.17120000000E+03 0.  0.
        998    1    1    2    0    0 -0.49901827370E+01  0.18401140659E+01  0.14629995743E+04  0.14630434178E+04  0.10000000000E+02 0. -1.
</event>
<event>
 5    1  0.9130022E-009  0.3834655E+03  0.7957747E-01  0.3436206E+00
         13   -1    0    0    0    0  0.00000000000E+00  0.00000000000E+00  0.14999999963E+04  0.15000000000E+04  0.10566000000E+00 0. -1.
        994   -1    0    0    0    0 -0.00000000000E+00 -0.00000000000E+00  0.11368683772E-12  0.17120000000E+03  0.17120000000E+03 0.  0.
         13    1    1    2    0    0  0.16384220002E+02  0.61645076442E+00  0.55459027653E+02  0.57831977217E+02  0.10566000000E+00 0. -1.
        994    1    1    2    0    0 -0.11032102984E+02  0.15403996792E+01  0.28040880257E+01  0.17158491495E+03  0.17120000000E+03 0.  0.
        998    1    1    2    0    0 -0.53521170186E+01 -0.21568504437E+01  0.14417368806E+04  0.14417831078E+04  0.10000000000E+02 0. -1.
</event>
<event>
 5    1  0.9130022E-009  0.3813178E+03  0.7957747E-01  0.3445441E+00
         13   -1    0    0    0    0  0.00000000000E+00  0.00000000000E+00  0.14999999963E+04  0.15000000000E+04  0.10566000000E+00 0.  1.
        994   -1    0    0    0    0 -0.00000000000E+00 -0.00000000000E+00  0.11368683772E-12  0.17120000000E+03  0.17120000000E+03 0.  0.
         13    1    1    2    0    0 -0.18969752632E+02 -0.20233327803E+02  0.12979725070E+03  0.13272745203E+03  0.10566000000E+00 0.  1.
        994    1    1    2    0    0 -0.93212987797E+01 -0.36595584753E+01  0.38032488949E+01  0.17153478855E+03  0.17120000000E+03 0.  0.
        998    1    1    2    0    0  0.28291051411E+02  0.23892886279E+02  0.13663994967E+04  0.13669377594E+04  0.10000000000E+02 0.  1.
</event>
<event>
 5    1  0.9130022E-009  0.3840733E+03  0.7957747E-01  0.3433612E+00
         13   -1    0    0    0    0  0.00000000000E+00  0.00000000000E+00  0.14999999963E+04  0.15000000000E+04  0.10566000000E+00 0.  1.
        994   -1    0    0    0    0 -0.00000000000E+00 -0.00000000000E+00  0.11368683772E-12  0.17120000000E+03  0.17120000000E+03 0.  0.
         13    1    1    2    0    0  0.22343004770E+02  0.15365198225E+02  0.16034725484E+03  0.16262396034E+03  0.10566000000E+00 0.  1.
        994    1    1    2    0    0 -0.27454129425E+02 -0.70241359658E+01  0.47444034468E+01  0.17359440392E+03  0.17120000000E+03 0.  0.
        998    1    1    2    0    0  0.51111246546E+01 -0.83410622590E+01  0.13349083380E+04  0.13349816357E+04  0.10000000000E+02 0. -1.
</event>
<event>
 5    1  0.9130022E-009  0.3778762E+03  0.7957747E-01  0.3460458E+00
         13   -1    0    0    0    0  0.00000000000E+00  0.00000000000E+00  0.14999999963E+04  0.15000000000E+04  0.10566000000E+00 0. -1.
        994   -1    0    0    0    0 -0.00000000000E+00 -0.00000000000E+00  0.11368683772E-12  0.17120000000E+03  0.17120000000E+03 0.  0.
         13    1    1    2    0    0 -0.84526389885E+02 -0.23143159270E+02  0.52312089849E+03  0.53041097463E+03  0.10566000000E+00 0. -1.
        994    1    1    2    0    0  0.79944742824E+02  0.12108111695E+02  0.27544649558E+02  0.19132672577E+03  0.17120000000E+03 0.  0.
        998    1    1    2    0    0  0.45816470609E+01  0.11035047575E+02  0.94933444823E+03  0.94946229960E+03  0.10000000000E+02 0. -1.
</event>
<event>
 5    1  0.9130022E-009  0.3688850E+03  0.7957747E-01  0.3501031E+00
         13   -1    0    0    0    0  0.00000000000E+00  0.00000000000E+00  0.14999999963E+04  0.15000000000E+04  0.10566000000E+00 0. -1.
        994   -1    0    0    0    0 -0.00000000000E+00 -0.00000000000E+00  0.11368683772E-12  0.17120000000E+03  0.17120000000E+03 0.  0.
         13    1    1    2    0    0  0.85621090673E+02 -0.66428584313E+02  0.42857669916E+03  0.44206529632E+03  0.10566000000E+00 0. -1.
        994    1    1    2    0    0 -0.72918039749E+02  0.66910054723E+02  0.45279788193E+02  0.20286373545E+03  0.17120000000E+03 0.  0.
        998    1    1    2    0    0 -0.12703050925E+02 -0.48147040935E+00  0.10261435089E+04  0.10262709682E+04  0.10000000000E+02 0. -1.
</event>
<event>
 5    1  0.9130022E-009  0.3841918E+03  0.7957747E-01  0.3433107E+00
         13   -1    0    0    0    0  0.00000000000E+00  0.00000000000E+00  0.14999999963E+04  0.15000000000E+04  0.10566000000E+00 0.  1.
        994   -1    0    0    0    0 -0.00000000000E+00 -0.00000000000E+00  0.11368683772E-12  0.17120000000E+03  0.17120000000E+03 0.  0.
         13    1    1    2    0    0  0.14224503015E+02 -0.27561267935E+02  0.18627111014E+03  0.18883563650E+03  0.10566000000E+00 0.  1.
        994    1    1    2    0    0 -0.37858307674E+02  0.30399009562E+02  0.98438362687E+01  0.17822371434E+03  0.17120000000E+03 0.  0.
        998    1    1    2    0    0  0.23633804659E+02 -0.28377416273E+01  0.13038850499E+04  0.13041406492E+04  0.10000000000E+02 0.  1.
</event>
<event>
 5    1  0.9130022E-009  0.3821521E+03  0.7957747E-01  0.3441841E+00
         13   -1    0    0    0    0  0.00000000000E+00  0.00000000000E+00  0.14999999963E+04  0.15000000000E+04  0.10566000000E+00 0. -1.
        994   -1    0    0    0    0 -0.00000000000E+00 -0.00000000000E+00  0.11368683772E-12  0.17120000000E+03  0.17120000000E+03 0.  0.
         13    1    1    2    0    0 -0.13200744155E+02  0.12593418906E+02  0.53274747046E+02  0.56312198348E+02  0.10566000000E+00 0. -1.
        994    1    1    2    0    0  0.56106937499E+01 -0.13046395483E+02  0.37204445437E+01  0.17182831556E+03  0.17120000000E+03 0.  0.
        998    1    1    2    0    0  0.75900504052E+01  0.45297657671E+00  0.14430048047E+04  0.14430594861E+04  0.10000000000E+02 0. -1.
</event>
<event>
 5    1  0.9130022E-009  0.3838115E+03  0.7957747E-01  0.3434728E+00
         13   -1    0    0    0    0  0.00000000000E+00  0.00000000000E+00  0.14999999963E+04  0.15000000000E+04  0.10566000000E+00 0. -1.
        994   -1    0    0    0    0 -0.00000000000E+00 -0.00000000000E+00  0.11368683772E-12  0.17120000000E+03  0.17120000000E+03 0.  0.
         13    1    1    2    0    0 -0.27112227851E+02 -0.30469019335E+02  0.23813939623E+03  0.24160674088E+03  0.10566000000E+00 0. -1.
        994    1    1    2    0    0  0.80570225333E+02  0.26129514845E+02  0.26277566712E+02  0.19280628431E+03  0.17120000000E+03 0.  0.
        998    1    1    2    0    0 -0.53457997482E+02  0.43395044898E+01  0.12355830333E+04  0.12367869748E+04  0.10000000000E+02 0. -1.
</event>
<event>
 5    1  0.9130022E-009  0.3785498E+03  0.7957747E-01  0.3457497E+00
         13   -1    0    0    0    0  0.00000000000E+00  0.00000000000E+00  0.14999999963E+04  0.15000000000E+04  0.10566000000E+00 0.  1.
        994   -1    0    0    0    0 -0.00000000000E+00 -0.00000000000E+00  0.11368683772E-12  0.17120000000E+03  0.17120000000E+03 0.  0.
         13    1    1    2    0    0 -0.16342017925E+02  0.20939710076E+01  0.26195970436E+02  0.30946507001E+02  0.10566000000E+00 0.  1.
        994    1    1    2    0    0  0.68859573933E+01 -0.16634301671E+01  0.50355539371E+01  0.17142047781E+03  0.17120000000E+03 0.  0.
        998    1    1    2    0    0  0.94560605314E+01 -0.43054084057E+00  0.14687684719E+04  0.14688330152E+04  0.10000000000E+02 0.  1.
</event>
<event>
 5    1  0.9130022E-009  0.3713688E+03  0.7957747E-01  0.3489624E+00
         13   -1    0    0    0    0  0.00000000000E+00  0.00000000000E+00  0.14999999963E+04  0.15000000000E+04  0.10566000000E+00 0. -1.
        994   -1    0    0    0    0 -0.00000000000E+00 -0.00000000000E+00  0.11368683772E-12  0.17120000000E+03  0.17120000000E+03 0.  0.
         13    1    1    2    0    0 -0.72190540372E+02 -0.32806718588E+02  0.20382094835E+03  0.21870241209E+03  0.10566000000E+00 0. -1.
        994    1    1    2    0    0  0.76929033662E+02  0.79543552026E+02  0.56017520975E+02  0.21140637537E+03  0.17120000000E+03 0.  0.
        998    1    1    2    0    0 -0.47384932904E+01 -0.46736833437E+02  0.12401615270E+04  0.12410912125E+04  0.10000000000E+02 0. -1.
</event>
<event>
 5    1  0.9130022E-009  0.3827306E+03  0.7957747E-01  0.3439355E+00
         13   -1    0    0    0    0  0.00000000000E+00  0.00000000000E+00  0.14999999963E+04  0.15000000000E+04  0.10566000000E+00 0.  1.
        994   -1    0    0    0    0 -0.00000000000E+00 -0.00000000000E+00  0.11368683772E-12  0.17120000000E+03  0.17120000000E+03 0.  0.
         13    1    1    2    0    0  0.45125080627E+01  0.12133264942E+02  0.29315269644E+02  0.32046451371E+02  0.10566000000E+00 0.  1.
        994    1    1    2    0    0 -0.38386263739E+01 -0.86879527410E+01  0.30600257704E+01  0.17149058089E+03  0.17120000000E+03 0.  0.
        998    1    1    2    0    0 -0.67388168883E+00 -0.34453122011E+01  0.14676247009E+04  0.14676629677E+04  0.10000000000E+02 0.  1.
</event>
<event>
 5    1  0.9130022E-009  0.3839986E+03  0.7957747E-01  0.3433931E+00
         13   -1    0    0    0    0  0.00000000000E+00  0.00000000000E+00  0.14999999963E+04  0.15000000000E+04  0.10566000000E+00 0. -1.
        994   -1    0    0    0    0 -0.00000000000E+00 -0.00000000000E+00  0.11368683772E-12  0.17120000000E+03  0.17120000000E+03 0.  0.
         13    1    1    2    0    0 -0.84053550206E+01 -0.23115538820E+02  0.11667264006E+03  0.11923713445E+03  0.10566000000E+00 0. -1.
        994    1    1    2    0    0  0.65001428616E+01  0.42272705406E+02  0.81869500792E+01  0.17665135049E+03  0.17120000000E+03 0.  0.
        998    1    1    2    0    0  0.19052121590E+01 -0.19157166586E+02  0.13751404061E+04  0.13753115151E+04  0.10000000000E+02 0. -1.
</event>
<event>
 5    1  0.9130022E-009  0.3794993E+03  0.7957747E-01  0.3453341E+00
         13   -1    0    0    0    0  0.00000000000E+00  0.00000000000E+00  0.14999999963E+04  0.15000000000E+04  0.10566000000E+00 0. -1.
        994   -1    0    0    0    0 -0.00000000000E+00 -0.00000000000E+00  0.11368683772E-12  0.17120000000E+03  0.17120000000E+03 0.  0.
         13    1    1    2    0    0  0.20828553973E+02 -0.10919607451E+02  0.62419836275E+02  0.66703175428E+02  0.10566000000E+00 0. -1.
        994    1    1    2    0    0 -0.21783842700E+02 -0.17159531374E+02  0.69652687559E+01  0.17357113899E+03  0.17120000000E+03 0.  0.
        998    1    1    2    0    0  0.95528872629E+00  0.28079138825E+02  0.14306148912E+04  0.14309256856E+04  0.10000000000E+02 0. -1.
</event>
<event>
 5    1  0.9130022E-009  0.3835387E+03  0.7957747E-01  0.3435893E+00
         13   -1    0    0    0    0  0.00000000000E+00  0.00000000000E+00  0.14999999963E+04  0.15000000000E+04  0.10566000000E+00 0. -1.
        994   -1    0    0    0    0 -0.00000000000E+00 -0.00000000000E+00  0.11368683772E-12  0.17120000000E+03  0.17120000000E+03 0.  0.
         13    1    1    2    0    0  0.18373682582E+02  0.81125701477E+01  0.96541387429E+02  0.98608603361E+02  0.10566000000E+00 0. -1.
        994    1    1    2    0    0  0.78835156897E+01 -0.17796466713E+01  0.25732322050E+01  0.17140997196E+03  0.17120000000E+03 0.  0.
        998    1    1    2    0    0 -0.26257198272E+02 -0.63329234764E+01  0.14008853766E+04  0.14011814247E+04  0.10000000000E+02 0. -1.
</event>
<event>
 5    1  0.9130022E-009  0.3729097E+03  0.7957747E-01  0.3482624E+00
         13   -1    0    0    0    0  0.00000000000E+00  0.00000000000E+00  0.14999999963E+04  0.15000000000E+04  0.10566000000E+00 0. -1.
        994   -1    0    0    0    0 -0.00000000000E+00 -0.00000000000E+00  0.11368683772E-12  0.17120000000E+03  0.17120000000E+03 0.  0.
         13    1    1    2    0    0  0.12412836292E+02  0.59652723724E+01  0.86899122006E+01  0.16284615973E+02  0.10566000000E+00 0. -1.
        994    1    1    2    0    0 -0.76594751202E+01 -0.11247622596E+02  0.83902382975E+01  0.17194479542E+03  0.17120000000E+03 0.  0.
        998    1    1    2    0    0 -0.47533611717E+01  0.52823502232E+01  0.14829198458E+04  0.14829705886E+04  0.10000000000E+02 0. -1.
</event>
<event>
 5    1  0.9130022E-009  0.3828563E+03  0.7957747E-01  0.3438815E+00
         13   -1    0    0    0    0  0.00000000000E+00  0.00000000000E+00  0.14999999963E+04  0.15000000000E+04  0.10566000000E+00 0.  1.
        994   -1    0    0    0    0 -0.00000000000E+00 -0.00000000000E+00  0.11368683772E-12  0.17120000000E+03  0.17120000000E+03 0.  0.
         13    1    1    2    0    0  0.46037338802E+01  0.11059843380E+02  0.25498871189E+02  0.28173002985E+02  0.10566000000E+00 0.  1.
        994    1    1    2    0    0 -0.28832945773E+01 -0.94436796417E+01  0.30211184212E+01  0.17151111809E+03  0.17120000000E+03 0.  0.
        998    1    1    2    0    0 -0.17204393029E+01 -0.16161637386E+01  0.14714800067E+04  0.14715158789E+04  0.10000000000E+02 0.  1.
</event>
<event>
 5    1  0.9130022E-009  0.3806332E+03  0.7957747E-01  0.3448406E+00
         13   -1    0    0    0    0  0.00000000000E+00  0.00000000000E+00  0.14999999963E+04  0.15000000000E+04  0.10566000000E+00 0.  1.
        994   -1    0    0    0    0 -0.00000000000E+00 -0.00000000000E+00  0.11368683772E-12  0.17120000000E+03  0.17120000000E+03 0.  0.
         13    1    1    2    0    0  0.32843159301E+02 -0.21058097377E+02  0.23524718146E+03  0.23846040369E+03  0.10566000000E+00 0.  1.
        994    1    1    2    0    0 -0.98187878532E+01 -0.95948644509E+01  0.44428287323E+01  0.17180701018E+03  0.17120000000E+03 0.  0.
        998    1    1    2    0    0 -0.23024371448E+02  0.30652961828E+02  0.12603099861E+04  0.12609325861E+04  0.10000000000E+02 0.  1.
</event>
<event>
 5    1  0.9130022E-009  0.3757868E+03  0.7957747E-01  0.3469711E+00
         13   -1    0    0    0    0  0.00000000000E+00  0.00000000000E+00  0.14999999963E+04  0.15000000000E+04  0.10566000000E+00 0. -1.
        994   -1    0    0    0    0 -0.00000000000E+00 -0.00000000000E+00  0.11368683772E-12  0.17120000000E+03  0.17120000000E+03 0.  0.
         13    1    1    2    0    0 -0.13702159332E+02 -0.24497283670E+03  0.89243892580E+03  0.92555209867E+03  0.10566000000E+00 0. -1.
        994    1    1    2    0    0 -0.38240077558E+02  0.27151450458E+03  0.33036430587E+03  0.46220389908E+03  0.17120000000E+03 0.  0.
        998    1    1    2    0    0  0.51942236890E+02 -0.26541667886E+02  0.27719676461E+03  0.28344400226E+03  0.10000000000E+02 0.  1.
</event>
<event>
 5    1  0.9130022E-009  0.3845707E+03  0.7957747E-01  0.3431495E+00
         13   -1    0    0    0    0  0.00000000000E+00  0.00000000000E+00  0.14999999963E+04  0.15000000000E+04  0.10566000000E+00 0. -1.
        994   -1    0    0    0    0 -0.00000000000E+00 -0.00000000000E+00  0.11368683772E-12  0.17120000000E+03  0.17120000000E+03 0.  0.
         13    1    1    2    0    0 -0.16862214598E+02 -0.10255286860E+02  0.11024855175E+03  0.11200115855E+03  0.10566000000E+00 0. -1.
        994    1    1    2    0    0  0.52588516043E+01  0.44145644160E+01  0.19987184649E+01  0.17134928881E+03  0.17120000000E+03 0.  0.
        998    1    1    2    0    0  0.11603362994E+02  0.58407224441E+01  0.13877527261E+04  0.13878495526E+04  0.10000000000E+02 0. -1.
</event>
<event>
 5    1  0.9130022E-009  0.3828923E+03  0.7957747E-01  0.3438661E+00
         13   -1    0    0    0    0  0.00000000000E+00  0.00000000000E+00  0.14999999963E+04  0.15000000000E+04  0.10566000000E+00 0. -1.
        994   -1    0    0    0    0 -0.00000000000E+00 -0.00000000000E+00  0.11368683772E-12  0.17120000000E+03  0.17120000000E+03 0.  0.
         13    1    1    2    0    0  0.14542308790E+02  0.67901697633E+01  0.47999940672E+02  0.50612158805E+02  0.10566000000E+00 0. -1.
        994    1    1    2    0    0 -0.60621778844E+01 -0.33718376739E+01  0.28395648344E+01  0.17136400561E+03  0.17120000000E+03 0.  0.
        998    1    1    2    0    0 -0.84801309055E+01 -0.34183320894E+01  0.14491604908E+04  0.14492238356E+04  0.10000000000E+02 0. -1.
</event>
<event>
 5    1  0.9130022E-009  0.3731221E+03  0.7957747E-01  0.3481664E+00
         13   -1    0    0    0    0  0.00000000000E+00  0.00000000000E+00  0.14999999963E+04  0.15000000000E+04  0.10566000000E+00 0. -1.
        994   -1    0    0    0    0 -0.00000000000E+00 -0.00000000000E+00  0.11368683772E-12  0.17120000000E+03  0.17120000000E+03 0.  0.
         13    1    1    2    0    0 -0.18393435447E+02 -0.42271798893E+02  0.75729195892E+02  0.88657462876E+02  0.10566000000E+00 0. -1.
        994    1    1    2    0    0  0.15787462382E+02  0.45149673528E+02  0.20729880556E+02  0.17896062398E+03  0.17120000000E+03 0.  0.
        998    1    1    2    0    0  0.26059730650E+01 -0.28778746341E+01  0.14035409198E+04  0.14035819131E+04  0.10000000000E+02 0. -1.
</event>
<event>
 5    1  0.9130022E-009  0.3689275E+03  0.7957747E-01  0.3500835E+00
         13   -1    0    0    0    0  0.00000000000E+00  0.00000000000E+00  0.14999999963E+04  0.15000000000E+04  0.10566000000E+00 0. -1.
        994   -1    0    0    0    0 -0.00000000000E+00 -0.00000000000E+00  0.11368683772E-12  0.17120000000E+03  0.17120000000E+03 0.  0.
         13    1    1    2    0    0  0.11159583604E+03  0.16285289537E+02  0.60749296250E+03  0.61787260170E+03  0.10566000000E+00 0. -1.
        994    1    1    2    0    0 -0.72588775352E+02 -0.10462272980E+03  0.69184884205E+02  0.22430121288E+03  0.17120000000E+03 0.  0.
        998    1    1    2    0    0 -0.39007060688E+02  0.88337440262E+02  0.82332214957E+03  0.82902618542E+03  0.10000000000E+02 0. -1.
</event>
<event>
 5    1  0.9130022E-009  0.3734282E+03  0.7957747E-01  0.3480282E+00
         13   -1    0    0    0    0  0.00000000000E+00  0.00000000000E+00  0.14999999963E+04  0.15000000000E+04  0.10566000000E+00 0.  1.
        994   -1    0    0    0    0 -0.00000000000E+00 -0.00000000000E+00  0.11368683772E-12  0.17120000000E+03  0.17120000000E+03 0.  0.
         13    1    1    2    0    0 -0.57546543414E+02  0.12690276870E+02  0.11742679770E+03  0.13138383374E+03  0.10566000000E+00 0.  1.
        994    1    1    2    0    0  0.56581212373E+02 -0.63205670153E+02  0.38685714850E+02  0.19494208080E+03  0.17120000000E+03 0.  0.
        998    1    1    2    0    0  0.96533104110E+00  0.50515393283E+02  0.13438874837E+04  0.13448740855E+04  0.10000000000E+02 0.  1.
</event>
<event>
 5    1  0.9130022E-009  0.3853167E+03  0.7957747E-01  0.3428330E+00
         13   -1    0    0    0    0  0.00000000000E+00  0.00000000000E+00  0.14999999963E+04  0.15000000000E+04  0.10566000000E+00 0. -1.
        994   -1    0    0    0    0 -0.00000000000E+00 -0.00000000000E+00  0.11368683772E-12  0.17120000000E+03  0.17120000000E+03 0.  0.
         13    1    1    2    0    0 -0.14473705491E+02 -0.67542226765E+00  0.68361852587E+02  0.69880601021E+02  0.10566000000E+00 0. -1.
        994    1    1    2    0    0  0.15986304833E+02  0.48182134172E+01  0.23893850812E+01  0.17202885306E+03  0.17120000000E+03 0.  0.
        998    1    1    2    0    0 -0.15125993418E+01 -0.41427911495E+01  0.14292487586E+04  0.14292905459E+04  0.10000000000E+02 0. -1.
</event>
<event>
 5    1  0.9130022E-009  0.3886296E+03  0.7957747E-01  0.3414423E+00
         13   -1    0    0    0    0  0.00000000000E+00  0.00000000000E+00  0.14999999963E+04  0.15000000000E+04  0.10566000000E+00 0.  1.
        994   -1    0    0    0    0 -0.00000000000E+00 -0.00000000000E+00  0.11368683772E-12  0.17120000000E+03  0.17120000000E+03 0.  0.
         13    1    1    2    0    0 -0.17756425963E+02  0.95029324985E+02  0.23501820776E+03  0.25412483628E+03  0.10566000000E+00 0.  1.
        994    1    1    2    0    0  0.79127873887E+01 -0.38925219416E+02  0.27078198111E+02  0.17782140963E+03  0.17120000000E+03 0.  0.
        998    1    1    2    0    0  0.98436385746E+01 -0.56104105569E+02  0.12379035904E+04  0.12392537541E+04  0.10000000000E+02 0.  1.
</event>
<event>
 5    1  0.9130022E-009  0.3803140E+03  0.7957747E-01  0.3449792E+00
         13   -1    0    0    0    0  0.00000000000E+00  0.00000000000E+00  0.14999999963E+04  0.15000000000E+04  0.10566000000E+00 0.  1.
        994   -1    0    0    0    0 -0.00000000000E+00 -0.00000000000E+00  0.11368683772E-12  0.17120000000E+03  0.17120000000E+03 0.  0.
         13    1    1    2    0    0 -0.23642372841E+02  0.25719840949E+01  0.72191159670E+02  0.76007575901E+02  0.10566000000E+00 0.  1.
        994    1    1    2    0    0  0.69859815199E+01 -0.33737319409E+01  0.41757450512E+01  0.17142655235E+03  0.17120000000E+03 0.  0.
        998    1    1    2    0    0  0.16656391321E+02  0.80174784596E+00  0.14236330916E+04  0.14237658717E+04  0.10000000000E+02 0.  1.
</event>
<event>
 5    1  0.9130022E-009  0.3688733E+03  0.7957747E-01  0.3501085E+00
         13   -1    0    0    0    0  0.00000000000E+00  0.00000000000E+00  0.14999999963E+04  0.15000000000E+04  0.10566000000E+00 0.  1.
        994   -1    0    0    0    0 -0.00000000000E+00 -0.00000000000E+00  0.11368683772E-12  0.17120000000E+03  0.17120000000E+03 0.  0.
         13    1    1    2    0    0 -0.78360202983E+01 -0.10137271043E+02  0.30700178556E+01  0.13175873860E+02  0.10566000000E+00 0.  1.
        994    1    1    2    0    0  0.11343796737E+02  0.14095804639E+02  0.11485069696E+02  0.17253614189E+03  0.17120000000E+03 0.  0.
        998    1    1    2    0    0 -0.35077764385E+01 -0.39585335964E+01  0.14854449087E+04  0.14854879842E+04  0.10000000000E+02 0.  1.
</event>
<event>
 5    1  0.9130022E-009  0.3779024E+03  0.7957747E-01  0.3460343E+00
         13   -1    0    0    0    0  0.00000000000E+00  0.00000000000E+00  0.14999999963E+04  0.15000000000E+04  0.10566000000E+00 0.  1.
        994   -1    0    0    0    0 -0.00000000000E+00 -0.00000000000E+00  0.11368683772E-12  0.17120000000E+03  0.17120000000E+03 0.  0.
         13    1    1    2    0    0 -0.26863880460E+02  0.77255601415E+01  0.72744783202E+02  0.77930526753E+02  0.10566000000E+00 0.  1.
        994    1    1    2    0    0  0.21658842627E+02  0.50061427895E+01  0.68610301842E+01  0.17277349526E+03  0.17120000000E+03 0.  0.
        998    1    1    2    0    0  0.52050378334E+01 -0.12731702931E+02  0.14203941829E+04  0.14204959780E+04  0.10000000000E+02 0.  1.
</event>
<event>
 5    1  0.9130022E-009  0.3798896E+03  0.7957747E-01  0.3451639E+00
         13   -1    0    0    0    0  0.00000000000E+00  0.00000000000E+00  0.14999999963E+04  0.15000000000E+04  0.10566000000E+00 0. -1.
        994   -1    0    0    0    0 -0.00000000000E+00 -0.00000000000E+00  0.11368683772E-12  0.17120000000E+03  0.17120000000E+03 0.  0.
         13    1    1    2    0    0  0.81782774095E+00 -0.29305920899E+02  0.97608708620E+02  0.10191651978E+03  0.10566000000E+00 0. -1.
        994    1    1    2    0    0 -0.22819164498E+01  0.24860558878E+02  0.62759346741E+01  0.17312446935E+03  0.17120000000E+03 0.  0.
        998    1    1    2    0    0  0.14640887088E+01  0.44453620213E+01  0.13961153530E+04  0.13961590109E+04  0.10000000000E+02 0. -1.
</event>
<event>
 5    1  0.9130022E-009  0.3794413E+03  0.7957747E-01  0.3453595E+00
         13   -1    0    0    0    0  0.00000000000E+00  0.00000000000E+00  0.14999999963E+04  0.15000000000E+04  0.10566000000E+00 0.  1.
        994   -1    0    0    0    0 -0.00000000000E+00 -0.00000000000E+00  0.11368683772E-12  0.17120000000E+03  0.17120000000E+03 0.  0.
         13    1    1    2    0    0 -0.12142785987E+02  0.20222624183E+02  0.66653749749E+02  0.70704563502E+02  0.10566000000E+00 0.  1.
        994    1    1    2    0    0  0.21329601520E+01  0.67680366781E+01  0.45840847490E+01  0.17140831273E+03  0.17120000000E+03 0.  0.
        998    1    1    2    0    0  0.10009825835E+02 -0.26990660861E+02  0.14287621618E+04  0.14290871238E+04  0.10000000000E+02 0.  1.
</event>
<event>
 5    1  0.9130022E-009  0.3706304E+03  0.7957747E-01  0.3492999E+00
         13   -1    0    0    0    0  0.00000000000E+00  0.00000000000E+00  0.14999999963E+04  0.15000000000E+04  0.10566000000E+00 0.  1.
        994   -1    0    0    0    0 -0.00000000000E+00 -0.00000000000E+00  0.11368683772E-12  0.17120000000E+03  0.17120000000E+03 0.  0.
         13    1    1    2    0    0 -0.59829987836E+02  0.42659988473E+01  0.27397156949E+03  0.28046079627E+03  0.10566000000E+00 0.  1.
        994    1    1    2    0    0 -0.14938111137E+02 -0.24711858569E+02  0.11822160946E+02  0.17402019023E+03  0.17120000000E+03 0.  0.
        998    1    1    2    0    0  0.74768098973E+02  0.20445859722E+02  0.12142062658E+04  0.12167190135E+04  0.10000000000E+02 0.  1.
</event>
<event>
 5    1  0.9130022E-009  0.3778191E+03  0.7957747E-01  0.3460710E+00
         13   -1    0    0    0    0  0.00000000000E+00  0.00000000000E+00  0.14999999963E+04  0.15000000000E+04  0.10566000000E+00 0.  1.
        994   -1    0    0    0    0 -0.00000000000E+00 -0.00000000000E+00  0.11368683772E-12  0.17120000000E+03  0.17120000000E+03 0.  0.
         13    1    1    2    0    0  0.78330772551E+02  0.37147301286E+01  0.46298142361E+03  0.46957567965E+03  0.10566000000E+00 0.  1.
        994    1    1    2    0    0 -0.67010540567E+02  0.23333182326E+01  0.20529173175E+02  0.18500471311E+03  0.17120000000E+03 0.  0.
        998    1    1    2    0    0 -0.11320231983E+02 -0.60480483613E+01  0.10164893995E+04  0.10166196072E+04  0.10000000000E+02 0.  1.
</event>
<event>
 5    1  0.9130022E-009  0.3851700E+03  0.7957747E-01  0.3428951E+00
         13   -1    0    0    0    0  0.00000000000E+00  0.00000000000E+00  0.14999999963E+04  0.15000000000E+04  0.10566000000E+00 0. -1.
        994   -1    0    0    0    0 -0.00000000000E+00 -0.00000000000E+00  0.11368683772E-12  0.17120000000E+03  0.17120000000E+03 0.  0.
         13    1    1    2    0    0  0.10820520912E+02 -0.43353416642E+01  0.46497907609E+02  0.47936890139E+02  0.10566000000E+00 0. -1.
        994    1    1    2    0    0  0.71909103606E+01  0.12258828239E+02  0.22099367510E+01  0.17180311954E+03  0.17120000000E+03 0.  0.
        998    1    1    2    0    0 -0.18011431272E+02 -0.79234865744E+01  0.14512921519E+04  0.14514599903E+04  0.10000000000E+02 0. -1.
</event>
<event>
 5    1  0.9130022E-009  0.3844652E+03  0.7957747E-01  0.3431944E+00
         13   -1    0    0    0    0  0.00000000000E+00  0.00000000000E+00  0.14999999963E+04  0.15000000000E+04  0.10566000000E+00 0.  1.
        994   -1    0    0    0    0 -0.00000000000E+00 -0.00000000000E+00  0.11368683772E-12  0.17120000000E+03  0.17120000000E+03 0.  0.
         13    1    1    2    0    0 -0.13724078976E+02  0.15213370832E+02  0.10715831666E+03  0.10909955540E+03  0.10566000000E+00 0.  1.
        994    1    1    2    0    0  0.15786556064E+02 -0.85938704612E+01  0.29609242288E+01  0.17216642249E+03  0.17120000000E+03 0.  0.
        998    1    1    2    0    0 -0.20624770873E+01 -0.66195003706E+01  0.13898807554E+04  0.13899340221E+04  0.10000000000E+02 0.  1.
</event>
<event>
 5    1  0.9130022E-009  0.3720165E+03  0.7957747E-01  0.3486674E+00
         13   -1    0    0    0    0  0.00000000000E+00  0.00000000000E+00  0.14999999963E+04  0.15000000000E+04  0.10566000000E+00 0. -1.
        994   -1    0    0    0    0 -0.00000000000E+00 -0.00000000000E+00  0.11368683772E-12  0.17120000000E+03  0.17120000000E+03 0.  0.
         13    1    1    2    0    0 -0.41615659415E+02  0.40231188646E+02  0.20968179938E+03  0.21752443496E+03  0.10566000000E+00 0. -1.
        994    1    1    2    0    0  0.20141935882E+02 -0.17206740661E+02  0.10632340217E+02  0.17356340675E+03  0.17120000000E+03 0.  0.
        998    1    1    2    0    0  0.21473723533E+02 -0.23024447985E+02  0.12796858567E+04  0.12801121583E+04  0.10000000000E+02 0. -1.
</event>
<event>
 5    1  0.9130022E-009  0.3702499E+03  0.7957747E-01  0.3494743E+00
         13   -1    0    0    0    0  0.00000000000E+00  0.00000000000E+00  0.14999999963E+04  0.15000000000E+04  0.10566000000E+00 0. -1.
        994   -1    0    0    0    0 -0.00000000000E+00 -0.00000000000E+00  0.11368683772E-12  0.17120000000E+03  0.17120000000E+03 0.  0.
         13    1    1    2    0    0 -0.43402852529E+02  0.45516203756E+02  0.24100817176E+03  0.24907926937E+03  0.10566000000E+00 0. -1.
        994    1    1    2    0    0 -0.47843119814E+00 -0.23087256284E+02  0.10982892252E+02  0.17309914564E+03  0.17120000000E+03 0.  0.
        998    1    1    2    0    0  0.43881283727E+02 -0.22428947473E+02  0.12480089323E+04  0.12490215850E+04  0.10000000000E+02 0. -1.
</event>
<event>
 5    1  0.9130022E-009  0.3425102E+03  0.7957747E-01  0.3632627E+00
         13   -1    0    0    0    0  0.00000000000E+00  0.00000000000E+00  0.14999999963E+04  0.15000000000E+04  0.10566000000E+00 0. -1.
        994   -1    0    0    0    0 -0.00000000000E+00 -0.00000000000E+00  0.11368683772E-12  0.17120000000E+03  0.17120000000E+03 0.  0.
         13    1    1    2    0    0  0.18318777917E+03  0.75430800887E+02  0.99427548334E+03  0.10138201596E+04  0.10566000000E+00 0. -1.
        994    1    1    2    0    0 -0.16535634897E+03 -0.55921484430E+02  0.12314693727E+03  0.27376000936E+03  0.17120000000E+03 0.  0.
        998    1    1    2    0    0 -0.17831430195E+02 -0.19509316458E+02  0.38257757566E+03  0.38361983099E+03  0.10000000000E+02 0.  1.
</event>
<event>
 5    1  0.9130022E-009  0.3689774E+03  0.7957747E-01  0.3500604E+00
         13   -1    0    0    0    0  0.00000000000E+00  0.00000000000E+00  0.14999999963E+04  0.15000000000E+04  0.10566000000E+00 0. -1.
        994   -1    0    0    0    0 -0.00000000000E+00 -0.00000000000E+00  0.11368683772E-12  0.17120000000E+03  0.17120000000E+03 0.  0.
         13    1    1    2    0    0  0.87373110334E+01 -0.10906953425E+02  0.54619546616E+01  0.15004877536E+02  0.10566000000E+00 0. -1.
        994    1    1    2    0    0 -0.53994503101E+01  0.11371458993E+02  0.10354624327E+02  0.17197419105E+03  0.17120000000E+03 0.  0.
        998    1    1    2    0    0 -0.33378607233E+01 -0.46450556825E+00  0.14841834173E+04  0.14842209314E+04  0.10000000000E+02 0. -1.
</event>
<event>
 5    1  0.9130022E-009  0.3716321E+03  0.7957747E-01  0.3488423E+00
         13   -1    0    0    0    0  0.00000000000E+00  0.00000000000E+00  0.14999999963E+04  0.15000000000E+04  0.10566000000E+00 0. -1.
        994   -1    0    0    0    0 -0.00000000000E+00 -0.00000000000E+00  0.11368683772E-12  0.17120000000E+03  0.17120000000E+03 0.  0.
         13    1    1    2    0    0 -0.36568270551E+02 -0.14069366350E+03  0.62994267128E+03  0.64649804765E+03  0.10566000000E+00 0. -1.
        994    1    1    2    0    0  0.27231639683E+02  0.11893323704E+03  0.66159461348E+02  0.22039326532E+03  0.17120000000E+03 0.  0.
        998    1    1    2    0    0  0.93366308678E+01  0.21760426459E+02  0.80389786365E+03  0.80430868702E+03  0.10000000000E+02 0. -1.
</event>
<event>
 5    1  0.9130022E-009  0.3799477E+03  0.7957747E-01  0.3451386E+00
         13   -1    0    0    0    0  0.00000000000E+00  0.00000000000E+00  0.14999999963E+04  0.15000000000E+04  0.10566000000E+00 0.  1.
        994   -1    0    0    0    0 -0.00000000000E+00 -0.00000000000E+00  0.11368683772E-12  0.17120000000E+03  0.17120000000E+03 0.  0.
         13    1    1    2    0    0 -0.49662136957E+01 -0.14552952814E+02  0.26525063381E+02  0.30660102177E+02  0.10566000000E+00 0.  1.
        994    1    1    2    0    0  0.13693097340E+01  0.13673412600E+02  0.47911865480E+01  0.17181744000E+03  0.17120000000E+03 0.  0.
        998    1    1    2    0    0  0.35969039617E+01  0.87954021418E+00  0.14686837463E+04  0.14687224578E+04  0.10000000000E+02 0.  1.
</event>
<event>
 5    1  0.9130022E-009  0.3836502E+03  0.7957747E-01  0.3435417E+00
         13   -1    0    0    0    0  0.00000000000E+00  0.00000000000E+00  0.14999999963E+04  0.15000000000E+04  0.10566000000E+00 0. -1.
        994   -1    0    0    0    0 -0.00000000000E+00 -0.00000000000E+00  0.11368683772E-12  0.17120000000E+03  0.17120000000E+03 0.  0.
         13    1    1    2    0    0  0.10209945071E+02 -0.16124099504E+02  0.79940118059E+02  0.82186758073E+02  0.10566000000E+00 0. -1.
        994    1    1    2    0    0 -0.19410731051E+02 -0.90625803441E+00  0.35500178256E+01  0.17233583612E+03  0.17120000000E+03 0.  0.
        998    1    1    2    0    0  0.92007859801E+01  0.17030357538E+02  0.14165098604E+04  0.14166774058E+04  0.10000000000E+02 0. -1.
</event>
<event>
 5    1  0.9130022E-009  0.3830663E+03  0.7957747E-01  0.3437915E+00
         13   -1    0    0    0    0  0.00000000000E+00  0.00000000000E+00  0.14999999963E+04  0.15000000000E+04  0.10566000000E+00 0. -1.
        994   -1    0    0    0    0 -0.00000000000E+00 -0.00000000000E+00  0.11368683772E-12  0.17120000000E+03  0.17120000000E+03 0.  0.
         13    1    1    2    0    0  0.69241192911E+01 -0.13960339128E+02  0.45781558256E+02  0.48361107689E+02  0.10566000000E+00 0. -1.
        994    1    1    2    0    0 -0.41976549092E+01  0.10892380644E+02  0.30443133194E+01  0.17162450905E+03  0.17120000000E+03 0.  0.
        998    1    1    2    0    0 -0.27264643819E+01  0.30679584838E+01  0.14511741247E+04  0.14512143833E+04  0.10000000000E+02 0. -1.
</event>
<event>
 5    1  0.9130022E-009  0.3812291E+03  0.7957747E-01  0.3445824E+00
         13   -1    0    0    0    0  0.00000000000E+00  0.00000000000E+00  0.14999999963E+04  0.15000000000E+04  0.10566000000E+00 0.  1.
        994   -1    0    0    0    0 -0.00000000000E+00 -0.00000000000E+00  0.11368683772E-12  0.17120000000E+03  0.17120000000E+03 0.  0.
         13    1    1    2    0    0  0.37696546225E+02 -0.17051677387E+01  0.18836924065E+03  0.19211173619E+03  0.10566000000E+00 0.  1.
        994    1    1    2    0    0 -0.30710954806E+02  0.28275172405E+00  0.66607510872E+01  0.17406047311E+03  0.17120000000E+03 0.  0.
        998    1    1    2    0    0 -0.69855914192E+01  0.14224160146E+01  0.13049700045E+04  0.13050277907E+04  0.10000000000E+02 0.  1.
</event>
<event>
 5    1  0.2038150E-008  0.3863121E+03  0.7957747E-01  0.3424126E+00
         13   -1    0    0    0    0  0.00000000000E+00  0.00000000000E+00  0.14999999963E+04  0.15000000000E+04  0.10566000000E+00 0.  1.
        994   -1    0    0    0    0 -0.00000000000E+00 -0.00000000000E+00  0.11368683772E-12  0.17120000000E+03  0.17120000000E+03 0.  0.
         13    1    1    2    0    0 -0.39945868274E+01 -0.96198806207E+01  0.54073879594E+02  0.55068089176E+02  0.10566000000E+00 0.  1.
        994    1    1    2    0    0  0.68221544738E+01  0.10803769585E+02  0.15149162269E+01  0.17168284189E+03  0.17120000000E+03 0.  0.
        998    1    1    2    0    0 -0.28275676464E+01 -0.11838889641E+01  0.14444112005E+04  0.14444490689E+04  0.10000000000E+02 0.  1.
</event>
<event>
 5    1  0.9130022E-009  0.3763213E+03  0.7957747E-01  0.3467334E+00
         13   -1    0    0    0    0  0.00000000000E+00  0.00000000000E+00  0.14999999963E+04  0.15000000000E+04  0.10566000000E+00 0.  1.
        994   -1    0    0    0    0 -0.00000000000E+00 -0.00000000000E+00  0.11368683772E-12  0.17120000000E+03  0.17120000000E+03 0.  0.
         13    1    1    2    0    0 -0.16425542011E+02  0.42196437771E+02  0.25324099525E+03  0.25725736264E+03  0.10566000000E+00 0.  1.
        994    1    1    2    0    0  0.14050036567E+02  0.33006058549E+02  0.10368835744E+02  0.17522487319E+03  0.17120000000E+03 0.  0.
        998    1    1    2    0    0  0.23755054438E+01 -0.75202496320E+02  0.12363901653E+04  0.12387177642E+04  0.10000000000E+02 0.  1.
</event>
<event>
 5    1  0.9130022E-009  0.3805984E+03  0.7957747E-01  0.3448557E+00
         13   -1    0    0    0    0  0.00000000000E+00  0.00000000000E+00  0.14999999963E+04  0.15000000000E+04  0.10566000000E+00 0. -1.
        994   -1    0    0    0    0 -0.00000000000E+00 -0.00000000000E+00  0.11368683772E-12  0.17120000000E+03  0.17120000000E+03 0.  0.
         13    1    1    2    0    0  0.45931235289E+02  0.15811112935E+02  0.25684013453E+03  0.26139344968E+03  0.10566000000E+00 0. -1.
        994    1    1    2    0    0 -0.43460962718E+02 -0.22816153357E+02  0.11912184984E+02  0.17849586070E+03  0.17120000000E+03 0.  0.
        998    1    1    2    0    0 -0.24702725714E+01  0.70050404217E+01  0.12312476768E+04  0.12313106896E+04  0.10000000000E+02 0. -1.
</event>
<event>
 5    1  0.9130022E-009  0.3805395E+03  0.7957747E-01  0.3448813E+00
         13   -1    0    0    0    0  0.00000000000E+00  0.00000000000E+00  0.14999999963E+04  0.15000000000E+04  0.10566000000E+00 0. -1.
        994   -1    0    0    0    0 -0.00000000000E+00 -0.00000000000E+00  0.11368683772E-12  0.17120000000E+03  0.17120000000E+03 0.  0.
         13    1    1    2    0    0  0.13139120326E+02  0.12597244380E+02  0.38922427874E+02  0.42968518762E+02  0.10566000000E+00 0. -1.
        994    1    1    2    0    0 -0.28676795744E+02 -0.13741453797E+02  0.72427035489E+01  0.17427875063E+03  0.17120000000E+03 0.  0.
        998    1    1    2    0    0  0.15537675418E+02  0.11442094169E+01  0.14538348649E+04  0.14539527306E+04  0.10000000000E+02 0. -1.
</event>
<event>
 5    1  0.9130022E-009  0.3763745E+03  0.7957747E-01  0.3467098E+00
         13   -1    0    0    0    0  0.00000000000E+00  0.00000000000E+00  0.14999999963E+04  0.15000000000E+04  0.10566000000E+00 0.  1.
        994   -1    0    0    0    0 -0.00000000000E+00 -0.00000000000E+00  0.11368683772E-12  0.17120000000E+03  0.17120000000E+03 0.  0.
         13    1    1    2    0    0  0.25680498764E+02  0.42712934598E+02  0.86145457345E+02  0.99523533819E+02  0.10566000000E+00 0.  1.
        994    1    1    2    0    0  0.28193634422E+02 -0.34490261265E+02  0.21480251908E+02  0.17820016938E+03  0.17120000000E+03 0.  0.
        998    1    1    2    0    0 -0.53874133186E+02 -0.82226733327E+01  0.13923742870E+04  0.13934762968E+04  0.10000000000E+02 0.  1.
</event>
<event>
 5    1  0.9130022E-009  0.3774939E+03  0.7957747E-01  0.3462144E+00
         13   -1    0    0    0    0  0.00000000000E+00  0.00000000000E+00  0.14999999963E+04  0.15000000000E+04  0.10566000000E+00 0. -1.
        994   -1    0    0    0    0 -0.00000000000E+00 -0.00000000000E+00  0.11368683772E-12  0.17120000000E+03  0.17120000000E+03 0.  0.
         13    1    1    2    0    0  0.99331969297E+02  0.72746196974E+02  0.60545852170E+03  0.61785020997E+03  0.10566000000E+00 0. -1.
        994    1    1    2    0    0 -0.58167942799E+02 -0.11177667720E+02  0.27664361723E+02  0.18325721469E+03  0.17120000000E+03 0.  0.
        998    1    1    2    0    0 -0.41164026499E+02 -0.61568529254E+02  0.86687711285E+03  0.87009257534E+03  0.10000000000E+02 0. -1.
</event>
<event>
 5    1  0.9130022E-009  0.3792162E+03  0.7957747E-01  0.3454579E+00
         13   -1    0    0    0    0  0.00000000000E+00  0.00000000000E+00  0.14999999963E+04  0.15000000000E+04  0.10566000000E+00 0.  1.
        994   -1    0    0    0    0 -0.00000000000E+00 -0.00000000000E+00  0.11368683772E-12  0.17120000000E+03  0.17120000000E+03 0.  0.
         13    1    1    2    0    0 -0.61442745353E+01  0.59303920339E+02  0.35578435920E+03  0.36074537903E+03  0.10566000000E+00 0.  1.
        994    1    1    2    0    0  0.99382569468E+01 -0.42722215652E+02  0.11004819402E+02  0.17707202690E+03  0.17120000000E+03 0.  0.
        998    1    1    2    0    0 -0.37939824115E+01 -0.16581704687E+02  0.11332108177E+04  0.11333825941E+04  0.10000000000E+02 0.  1.
</event>
<event>
 5    1  0.9130022E-009  0.3730063E+03  0.7957747E-01  0.3482188E+00
         13   -1    0    0    0    0  0.00000000000E+00  0.00000000000E+00  0.14999999963E+04  0.15000000000E+04  0.10566000000E+00 0. -1.
        994   -1    0    0    0    0 -0.00000000000E+00 -0.00000000000E+00  0.11368683772E-12  0.17120000000E+03  0.17120000000E+03 0.  0.
         13    1    1    2    0    0  0.45943240869E+02 -0.13474324300E+02  0.14142691439E+03  0.14931149344E+03  0.10566000000E+00 0. -1.
        994    1    1    2    0    0 -0.35829615009E+02  0.43277068668E+01  0.12176622247E+02  0.17538586171E+03  0.17120000000E+03 0.  0.
        998    1    1    2    0    0 -0.10113625860E+02  0.91466174329E+01  0.13463964596E+04  0.13465026448E+04  0.10000000000E+02 0. -1.
</event>
<event>
 5    1  0.9130022E-009  0.3849627E+03  0.7957747E-01  0.3429830E+00
         13   -1    0    0    0    0  0.00000000000E+00  0.00000000000E+00  0.14999999963E+04  0.15000000000E+04  0.10566000000E+00 0.  1.
        994   -1    0    0    0    0 -0.00000000000E+00 -0.00000000000E+00  0.11368683772E-12  0.17120000000E+03  0.17120000000E+03 0.  0.
         13    1    1    2    0    0 -0.71439630616E+01 -0.16333924413E+02  0.95674010471E+02  0.97320916244E+02  0.10566000000E+00 0.  1.
        994    1    1    2    0    0  0.58198298645E+01  0.11038305331E+02  0.21609589283E+01  0.17166777318E+03  0.17120000000E+03 0.  0.
        998    1    1    2    0    0  0.13241331971E+01  0.52956190827E+01  0.14021650269E+04  0.14022113106E+04  0.10000000000E+02 0.  1.
</event>
<event>
 5    1  0.9130022E-009  0.3852807E+03  0.7957747E-01  0.3428483E+00
         13   -1    0    0    0    0  0.00000000000E+00  0.00000000000E+00  0.14999999963E+04  0.15000000000E+04  0.10566000000E+00 0.  1.
        994   -1    0    0    0    0 -0.00000000000E+00 -0.00000000000E+00  0.11368683772E-12  0.17120000000E+03  0.17120000000E+03 0.  0.
         13    1    1    2    0    0 -0.10386714398E+02  0.15236464615E+02  0.10521505801E+03  0.10681878714E+03  0.10566000000E+00 0.  1.
        994    1    1    2    0    0  0.16548507581E+02 -0.15083646016E+02  0.31399225334E+01  0.17268661961E+03  0.17120000000E+03 0.  0.
        998    1    1    2    0    0 -0.61617931825E+01 -0.15281859884E+00  0.13916450157E+04  0.13916945932E+04  0.10000000000E+02 0.  1.
</event>
<event>
 5    1  0.9130022E-009  0.3856001E+03  0.7957747E-01  0.3427131E+00
         13   -1    0    0    0    0  0.00000000000E+00  0.00000000000E+00  0.14999999963E+04  0.15000000000E+04  0.10566000000E+00 0. -1.
        994   -1    0    0    0    0 -0.00000000000E+00 -0.00000000000E+00  0.11368683772E-12  0.17120000000E+03  0.17120000000E+03 0.  0.
         13    1    1    2    0    0 -0.52628981634E+01 -0.14272948980E+02  0.84505601134E+02  0.85863979390E+02  0.10566000000E+00 0. -1.
        994    1    1    2    0    0  0.13791254002E+02  0.10103812250E+02  0.22924287793E+01  0.17206679209E+03  0.17120000000E+03 0.  0.
        998    1    1    2    0    0 -0.85283558386E+01  0.41691367300E+01  0.14132019664E+04  0.14132692285E+04  0.10000000000E+02 0. -1.
</event>
<event>
 5    1  0.9130022E-009  0.3806338E+03  0.7957747E-01  0.3448403E+00
         13   -1    0    0    0    0  0.00000000000E+00  0.00000000000E+00  0.14999999963E+04  0.15000000000E+04  0.10566000000E+00 0.  1.
        994   -1    0    0    0    0 -0.00000000000E+00 -0.00000000000E+00  0.11368683772E-12  0.17120000000E+03  0.17120000000E+03 0.  0.
         13    1    1    2    0    0  0.11620703944E+02 -0.23487825839E+01  0.16371316311E+02  0.20213577159E+02  0.10566000000E+00 0.  1.
        994    1    1    2    0    0 -0.19947921782E+02 -0.36832309211E+01  0.51874392226E+01  0.17247560784E+03  0.17120000000E+03 0.  0.
        998    1    1    2    0    0  0.83272178378E+01  0.60320135051E+01  0.14784412407E+04  0.14785108150E+04  0.10000000000E+02 0.  1.
</event>
<event>
 5    1  0.9130022E-009  0.3124554E+03  0.7957747E-01  0.3810925E+00
         13   -1    0    0    0    0  0.00000000000E+00  0.00000000000E+00  0.14999999963E+04  0.15000000000E+04  0.10566000000E+00 0. -1.
        994   -1    0    0    0    0 -0.00000000000E+00 -0.00000000000E+00  0.11368683772E-12  0.17120000000E+03  0.17120000000E+03 0.  0.
         13    1    1    2    0    0  0.15826730918E+03 -0.94317061093E+02  0.89951268800E+03  0.91818698324E+03  0.10566000000E+00 0. -1.
        994    1    1    2    0    0 -0.49387027965E+02  0.15009127574E+03  0.13002002103E+03  0.26679789252E+03  0.17120000000E+03 0.  0.
        998    1    1    2    0    0 -0.10888028122E+03 -0.55774214651E+02  0.47046728725E+03  0.48621512423E+03  0.10000000000E+02 0. -1.
</event>
<event>
 5    1  0.9130022E-009  0.3768029E+03  0.7957747E-01  0.3465199E+00
         13   -1    0    0    0    0  0.00000000000E+00  0.00000000000E+00  0.14999999963E+04  0.15000000000E+04  0.10566000000E+00 0. -1.
        994   -1    0    0    0    0 -0.00000000000E+00 -0.00000000000E+00  0.11368683772E-12  0.17120000000E+03  0.17120000000E+03 0.  0.
         13    1    1    2    0    0 -0.17154341862E+03  0.34497023287E+02  0.90470156453E+03  0.92146737388E+03  0.10566000000E+00 0. -1.
        994    1    1    2    0    0  0.17116857662E+03 -0.29027895476E+02  0.11549889582E+03  0.26979758204E+03  0.17120000000E+03 0.  0.
        998    1    1    2    0    0  0.37484199387E+00 -0.54691278112E+01  0.47979953592E+03  0.47993504408E+03  0.10000000000E+02 0.  1.
</event>
<event>
 5    1  0.9130022E-009  0.3919120E+03  0.7957747E-01  0.3400876E+00
         13   -1    0    0    0    0  0.00000000000E+00  0.00000000000E+00  0.14999999963E+04  0.15000000000E+04  0.10566000000E+00 0.  1.
        994   -1    0    0    0    0 -0.00000000000E+00 -0.00000000000E+00  0.11368683772E-12  0.17120000000E+03  0.17120000000E+03 0.  0.
         13    1    1    2    0    0 -0.19845249798E+02  0.21558665572E+02  0.88362195822E+01  0.30605554092E+02  0.10566000000E+00 0.  1.
        994    1    1    2    0    0  0.21256219667E+02 -0.19051176043E+02  0.26124699730E+02  0.17551841533E+03  0.17120000000E+03 0.  0.
        998    1    1    2    0    0 -0.14109698692E+01 -0.25074895283E+01  0.14650390770E+04  0.14650760306E+04  0.10000000000E+02 0.  1.
</event>
<event>
 5    1  0.9130022E-009  0.3746396E+03  0.7957747E-01  0.3474836E+00
         13   -1    0    0    0    0  0.00000000000E+00  0.00000000000E+00  0.14999999963E+04  0.15000000000E+04  0.10566000000E+00 0.  1.
        994   -1    0    0    0    0 -0.00000000000E+00 -0.00000000000E+00  0.11368683772E-12  0.17120000000E+03  0.17120000000E+03 0.  0.
         13    1    1    2    0    0  0.15303635458E+01  0.11669698306E+02  0.69482747690E+01  0.13667975616E+02  0.10566000000E+00 0.  1.
        994    1    1    2    0    0  0.95387107302E+00 -0.93560540965E+01  0.71649824974E+01  0.17160775796E+03  0.17120000000E+03 0.  0.
        998    1    1    2    0    0 -0.24842346188E+01 -0.23136442099E+01  0.14858867390E+04  0.14859242664E+04  0.10000000000E+02 0.  1.
</event>
<event>
 5    1  0.9130022E-009  0.3726646E+03  0.7957747E-01  0.3483734E+00
         13   -1    0    0    0    0  0.00000000000E+00  0.00000000000E+00  0.14999999963E+04  0.15000000000E+04  0.10566000000E+00 0. -1.
        994   -1    0    0    0    0 -0.00000000000E+00 -0.00000000000E+00  0.11368683772E-12  0.17120000000E+03  0.17120000000E+03 0.  0.
         13    1    1    2    0    0  0.50556898838E+01  0.50344691895E+02  0.93886136894E+02  0.10665254740E+03  0.10566000000E+00 0. -1.
        994    1    1    2    0    0 -0.10712211604E+01 -0.49704607086E+02  0.21128746289E+02  0.17952035929E+03  0.17120000000E+03 0.  0.
        998    1    1    2    0    0 -0.39844687233E+01 -0.64008480865E+00  0.13849851131E+04  0.13850270933E+04  0.10000000000E+02 0.  1.
</event>
<event>
 5    1  0.9130022E-009  0.3838598E+03  0.7957747E-01  0.3434522E+00
         13   -1    0    0    0    0  0.00000000000E+00  0.00000000000E+00  0.14999999963E+04  0.15000000000E+04  0.10566000000E+00 0.  1.
        994   -1    0    0    0    0 -0.00000000000E+00 -0.00000000000E+00  0.11368683772E-12  0.17120000000E+03  0.17120000000E+03 0.  0.
         13    1    1    2    0    0 -0.32899098788E+01  0.12024758198E+02  0.34089990442E+02  0.36298167022E+02  0.10566000000E+00 0.  1.
        994    1    1    2    0    0  0.12917698648E+01 -0.13381713507E+02  0.27941170455E+01  0.17174977734E+03  0.17120000000E+03 0.  0.
        998    1    1    2    0    0  0.19981400141E+01  0.13569553089E+01  0.14631158888E+04  0.14631520556E+04  0.10000000000E+02 0.  1.
</event>
<event>
 5    1  0.9130022E-009  0.3828495E+03  0.7957747E-01  0.3438844E+00
         13   -1    0    0    0    0  0.00000000000E+00  0.00000000000E+00  0.14999999963E+04  0.15000000000E+04  0.10566000000E+00 0.  1.
        994   -1    0    0    0    0 -0.00000000000E+00 -0.00000000000E+00  0.11368683772E-12  0.17120000000E+03  0.17120000000E+03 0.  0.
         13    1    1    2    0    0  0.18347161652E+02  0.96863899727E+00  0.60562332261E+02  0.63287943995E+02  0.10566000000E+00 0.  1.
        994    1    1    2    0    0 -0.15835451671E+02  0.34786924534E+01  0.35726137526E+01  0.17200309997E+03  0.17120000000E+03 0.  0.
        998    1    1    2    0    0 -0.25117099815E+01 -0.44473314506E+01  0.14358650503E+04  0.14359089560E+04  0.10000000000E+02 0.  1.
</event>
<event>
 5    1  0.9130022E-009  0.3753222E+03  0.7957747E-01  0.3471783E+00
         13   -1    0    0    0    0  0.00000000000E+00  0.00000000000E+00  0.14999999963E+04  0.15000000000E+04  0.10566000000E+00 0. -1.
        994   -1    0    0    0    0 -0.00000000000E+00 -0.00000000000E+00  0.11368683772E-12  0.17120000000E+03  0.17120000000E+03 0.  0.
         13    1    1    2    0    0 -0.80620661090E+02  0.52835232389E+02  0.29153853843E+03  0.30706022753E+03  0.10566000000E+00 0. -1.
        994    1    1    2    0    0  0.70299748750E+02 -0.40630122007E+02  0.37658549557E+02  0.19318506113E+03  0.17120000000E+03 0.  0.
        998    1    1    2    0    0  0.10320912340E+02 -0.12205110381E+02  0.11708029083E+04  0.11709547113E+04  0.10000000000E+02 0. -1.
</event>
<event>
 5    1  0.9130022E-009  0.3852444E+03  0.7957747E-01  0.3428636E+00
         13   -1    0    0    0    0  0.00000000000E+00  0.00000000000E+00  0.14999999963E+04  0.15000000000E+04  0.10566000000E+00 0. -1.
        994   -1    0    0    0    0 -0.00000000000E+00 -0.00000000000E+00  0.11368683772E-12  0.17120000000E+03  0.17120000000E+03 0.  0.
         13    1    1    2    0    0  0.88344833886E+01 -0.54063975594E+01  0.35237611879E+02  0.36728431580E+02  0.10566000000E+00 0. -1.
        994    1    1    2    0    0 -0.69401749770E+01  0.48459274654E+01  0.17443281144E+01  0.17141800291E+03  0.17120000000E+03 0.  0.
        998    1    1    2    0    0 -0.18943084116E+01  0.56047009398E+00  0.14630180563E+04  0.14630535655E+04  0.10000000000E+02 0. -1.
</event>
<event>
 5    1  0.9130022E-009  0.3862536E+03  0.7957747E-01  0.3424373E+00
         13   -1    0    0    0    0  0.00000000000E+00  0.00000000000E+00  0.14999999963E+04  0.15000000000E+04  0.10566000000E+00 0. -1.
        994   -1    0    0    0    0 -0.00000000000E+00 -0.00000000000E+00  0.11368683772E-12  0.17120000000E+03  0.17120000000E+03 0.  0.
         13    1    1    2    0    0  0.67144732024E+01 -0.82779635566E+01  0.56166266921E+02  0.57168781122E+02  0.10566000000E+00 0. -1.
        994    1    1    2    0    0 -0.97554441955E+01  0.45993164509E+01  0.13900920985E+01  0.17154502254E+03  0.17120000000E+03 0.  0.
        998    1    1    2    0    0  0.30409709931E+01  0.36786471057E+01  0.14424436373E+04  0.14424861963E+04  0.10000000000E+02 0. -1.
</event>
<event>
 5    1  0.9130022E-009  0.3799029E+03  0.7957747E-01  0.3451581E+00
         13   -1    0    0    0    0  0.00000000000E+00  0.00000000000E+00  0.14999999963E+04  0.15000000000E+04  0.10566000000E+00 0. -1.
        994   -1    0    0    0    0 -0.00000000000E+00 -0.00000000000E+00  0.11368683772E-12  0.17120000000E+03  0.17120000000E+03 0.  0.
         13    1    1    2    0    0 -0.23148603588E+02 -0.10697029949E+02  0.80685455841E+02  0.84619372759E+02  0.10566000000E+00 0. -1.
        994    1    1    2    0    0 -0.10580997710E+02  0.33736885543E+02  0.83739115628E+01  0.17501342050E+03  0.17120000000E+03 0.  0.
        998    1    1    2    0    0  0.33729601298E+02 -0.23039855594E+02  0.14109406289E+04  0.14115672067E+04  0.10000000000E+02 0. -1.
</event>
<event>
 5    1  0.9130022E-009  0.3841235E+03  0.7957747E-01  0.3433398E+00
         13   -1    0    0    0    0  0.00000000000E+00  0.00000000000E+00  0.14999999963E+04  0.15000000000E+04  0.10566000000E+00 0.  1.
        994   -1    0    0    0    0 -0.00000000000E+00 -0.00000000000E+00  0.11368683772E-12  0.17120000000E+03  0.17120000000E+03 0.  0.
         13    1    1    2    0    0  0.16065591883E+02 -0.13034730116E+01  0.57153200365E+02  0.59382672224E+02  0.10566000000E+00 0.  1.
        994    1    1    2    0    0 -0.27396652395E+02  0.22338820150E+01  0.45618001715E+01  0.17345263564E+03  0.17120000000E+03 0.  0.
        998    1    1    2    0    0  0.11331060511E+02 -0.93040900337E+00  0.14382849957E+04  0.14383646921E+04  0.10000000000E+02 0.  1.
</event>
<event>
 5    1  0.9130022E-009  0.3770826E+03  0.7957747E-01  0.3463961E+00
         13   -1    0    0    0    0  0.00000000000E+00  0.00000000000E+00  0.14999999963E+04  0.15000000000E+04  0.10566000000E+00 0. -1.
        994   -1    0    0    0    0 -0.00000000000E+00 -0.00000000000E+00  0.11368683772E-12  0.17120000000E+03  0.17120000000E+03 0.  0.
         13    1    1    2    0    0  0.13574029085E+03 -0.17929856321E+02  0.46397462493E+03  0.48375548581E+03  0.10566000000E+00 0. -1.
        994    1    1    2    0    0 -0.12142456153E+03  0.23861619278E+02  0.71898862720E+02  0.22314163099E+03  0.17120000000E+03 0.  0.
        998    1    1    2    0    0 -0.14315729315E+02 -0.59317629564E+01  0.96412650863E+03  0.96430288320E+03  0.10000000000E+02 0.  0.
</event>
<event>
 5    1  0.9130022E-009  0.3685589E+03  0.7957747E-01  0.3502540E+00
         13   -1    0    0    0    0  0.00000000000E+00  0.00000000000E+00  0.14999999963E+04  0.15000000000E+04  0.10566000000E+00 0. -1.
        994   -1    0    0    0    0 -0.00000000000E+00 -0.00000000000E+00  0.11368683772E-12  0.17120000000E+03  0.17120000000E+03 0.  0.
         13    1    1    2    0    0  0.59552419784E+02  0.35233176386E+02  0.20367804936E+03  0.21511073050E+03  0.10566000000E+00 0. -1.
        994    1    1    2    0    0 -0.55712419894E+02 -0.36676245862E+02  0.25818566059E+02  0.18553991240E+03  0.17120000000E+03 0.  0.
        998    1    1    2    0    0 -0.38399998896E+01  0.14430694765E+01  0.12705033809E+04  0.12705493571E+04  0.10000000000E+02 0. -1.
</event>
<event>
 5    1  0.9130022E-009  0.3745073E+03  0.7957747E-01  0.3475429E+00
         13   -1    0    0    0    0  0.00000000000E+00  0.00000000000E+00  0.14999999963E+04  0.15000000000E+04  0.10566000000E+00 0. -1.
        994   -1    0    0    0    0 -0.00000000000E+00 -0.00000000000E+00  0.11368683772E-12  0.17120000000E+03  0.17120000000E+03 0.  0.
         13    1    1    2    0    0  0.19112272456E+02  0.35609914509E+02  0.10623574698E+03  0.11366349489E+03  0.10566000000E+00 0. -1.
        994    1    1    2    0    0 -0.12636536321E+02 -0.43140214419E+02  0.13843646609E+02  0.17754392894E+03  0.17120000000E+03 0.  0.
        998    1    1    2    0    0 -0.64757361355E+01  0.75302999097E+01  0.13799206027E+04  0.13799925762E+04  0.10000000000E+02 0. -1.
</event>
<event>
 5    1  0.9130022E-009  0.3801401E+03  0.7957747E-01  0.3450549E+00
         13   -1    0    0    0    0  0.00000000000E+00  0.00000000000E+00  0.14999999963E+04  0.15000000000E+04  0.10566000000E+00 0. -1.
        994   -1    0    0    0    0 -0.00000000000E+00 -0.00000000000E+00  0.11368683772E-12  0.17120000000E+03  0.17120000000E+03 0.  0.
         13    1    1    2    0    0  0.14140731737E+03  0.16345809178E+03  0.10195904954E+04  0.10422472675E+04  0.10566000000E+00 0. -1.
        994    1    1    2    0    0 -0.12379492305E+03 -0.19847100903E+03  0.21608065260E+03  0.36154697181E+03  0.17120000000E+03 0.  0.
        998    1    1    2    0    0 -0.17612394321E+02  0.35012917248E+02  0.26432884832E+03  0.26740576071E+03  0.10000000000E+02 0. -1.
</event>
<event>
 5    1  0.9130022E-009  0.3620310E+03  0.7957747E-01  0.3533336E+00
         13   -1    0    0    0    0  0.00000000000E+00  0.00000000000E+00  0.14999999963E+04  0.15000000000E+04  0.10566000000E+00 0.  1.
        994   -1    0    0    0    0 -0.00000000000E+00 -0.00000000000E+00  0.11368683772E-12  0.17120000000E+03  0.17120000000E+03 0.  0.
         13    1    1    2    0    0  0.15933424750E+03  0.15144232393E+03  0.11270822061E+04  0.11483189846E+04  0.10566000000E+00 0.  1.
        994    1    1    2    0    0 -0.14812644734E+03 -0.13092296204E+03  0.15607174120E+03  0.30454900229E+03  0.17120000000E+03 0.  0.
        998    1    1    2    0    0 -0.11207800152E+02 -0.20519361889E+02  0.21684604894E+03  0.21833201308E+03  0.10000000000E+02 0. -1.
</event>
<event>
 5    1  0.9130022E-009  0.3841556E+03  0.7957747E-01  0.3433261E+00
         13   -1    0    0    0    0  0.00000000000E+00  0.00000000000E+00  0.14999999963E+04  0.15000000000E+04  0.10566000000E+00 0.  1.
        994   -1    0    0    0    0 -0.00000000000E+00 -0.00000000000E+00  0.11368683772E-12  0.17120000000E+03  0.17120000000E+03 0.  0.
         13    1    1    2    0    0  0.12867943101E+02 -0.17305605412E+02  0.10654344420E+03  0.10870411494E+03  0.10566000000E+00 0.  1.
        994    1    1    2    0    0 -0.11031787776E+02  0.18828167555E+02  0.36218567397E+01  0.17262316786E+03  0.17120000000E+03 0.  0.
        998    1    1    2    0    0 -0.18361553248E+01 -0.15225621422E+01  0.13898346953E+04  0.13898727172E+04  0.10000000000E+02 0.  1.
</event>
<event>
 5    1  0.9130022E-009  0.3761196E+03  0.7957747E-01  0.3468230E+00
         13   -1    0    0    0    0  0.00000000000E+00  0.00000000000E+00  0.14999999963E+04  0.15000000000E+04  0.10566000000E+00 0. -1.
        994   -1    0    0    0    0 -0.00000000000E+00 -0.00000000000E+00  0.11368683772E-12  0.17120000000E+03  0.17120000000E+03 0.  0.
         13    1    1    2    0    0  0.33944126975E+02  0.15562336081E+01  0.12868595411E+03  0.13309662493E+03  0.10566000000E+00 0. -1.
        994    1    1    2    0    0  0.38985455256E+02  0.52191498357E+02  0.20614226070E+02  0.18433177843E+03  0.17120000000E+03 0.  0.
        998    1    1    2    0    0 -0.72929582231E+02 -0.53747731965E+02  0.13506998161E+04  0.13537715966E+04  0.10000000000E+02 0. -1.
</event>
<event>
 5    1  0.9933458E-009  0.3854650E+03  0.7957747E-01  0.3427703E+00
         13   -1    0    0    0    0  0.00000000000E+00  0.00000000000E+00  0.14999999963E+04  0.15000000000E+04  0.10566000000E+00 0.  1.
        994   -1    0    0    0    0 -0.00000000000E+00 -0.00000000000E+00  0.11368683772E-12  0.17120000000E+03  0.17120000000E+03 0.  0.
         13    1    1    2    0    0  0.95940335574E+01 -0.32823037218E+01  0.36694883993E+02  0.38070259690E+02  0.10566000000E+00 0.  1.
        994    1    1    2    0    0 -0.73151999267E+01  0.14670571109E+01  0.15822802325E+01  0.17136979902E+03  0.17120000000E+03 0.  0.
        998    1    1    2    0    0 -0.22788336307E+01  0.18152466109E+01  0.14617228321E+04  0.14617599413E+04  0.10000000000E+02 0.  1.
</event>
<event>
 5    1  0.9130022E-009  0.3838269E+03  0.7957747E-01  0.3434663E+00
         13   -1    0    0    0    0  0.00000000000E+00  0.00000000000E+00  0.14999999963E+04  0.15000000000E+04  0.10566000000E+00 0. -1.
        994   -1    0    0    0    0 -0.00000000000E+00 -0.00000000000E+00  0.11368683772E-12  0.17120000000E+03  0.17120000000E+03 0.  0.
         13    1    1    2    0    0  0.34152929783E+01 -0.10928087837E+02  0.28796323718E+02  0.30989139285E+02  0.10566000000E+00 0. -1.
        994    1    1    2    0    0 -0.73282089885E+00  0.94902405373E+01  0.25128242080E+01  0.17148281540E+03  0.17120000000E+03 0.  0.
        998    1    1    2    0    0 -0.26824720795E+01  0.14378472999E+01  0.14686908484E+04  0.14687280453E+04  0.10000000000E+02 0. -1.
</event>
<event>
 5    1  0.9130022E-009  0.3814071E+03  0.7957747E-01  0.3445054E+00
         13   -1    0    0    0    0  0.00000000000E+00  0.00000000000E+00  0.14999999963E+04  0.15000000000E+04  0.10566000000E+00 0. -1.
        994   -1    0    0    0    0 -0.00000000000E+00 -0.00000000000E+00  0.11368683772E-12  0.17120000000E+03  0.17120000000E+03 0.  0.
         13    1    1    2    0    0  0.19822046958E+02 -0.10065892397E+03  0.59972548153E+03  0.60843717579E+03  0.10566000000E+00 0. -1.
        994    1    1    2    0    0 -0.25216894896E+02  0.12498177971E+03  0.59553326635E+02  0.22161312182E+03  0.17120000000E+03 0.  0.
        998    1    1    2    0    0  0.53948479381E+01 -0.24322855746E+02  0.84072118811E+03  0.84114970239E+03  0.10000000000E+02 0. -1.
</event>
<event>
 5    1  0.9130022E-009  0.3769967E+03  0.7957747E-01  0.3464340E+00
         13   -1    0    0    0    0  0.00000000000E+00  0.00000000000E+00  0.14999999963E+04  0.15000000000E+04  0.10566000000E+00 0. -1.
        994   -1    0    0    0    0 -0.00000000000E+00 -0.00000000000E+00  0.11368683772E-12  0.17120000000E+03  0.17120000000E+03 0.  0.
         13    1    1    2    0    0 -0.20090007396E+02 -0.51024630607E+02  0.26369074816E+03  0.26933240272E+03  0.10566000000E+00 0. -1.
        994    1    1    2    0    0 -0.93316846705E+01  0.38267886804E+02  0.10913497134E+02  0.17601152212E+03  0.17120000000E+03 0.  0.
        998    1    1    2    0    0  0.29421692066E+02  0.12756743804E+02  0.12253957510E+04  0.12258560752E+04  0.10000000000E+02 0. -1.
</event>
<event>
 5    1  0.9130022E-009  0.3823479E+03  0.7957747E-01  0.3440998E+00
         13   -1    0    0    0    0  0.00000000000E+00  0.00000000000E+00  0.14999999963E+04  0.15000000000E+04  0.10566000000E+00 0. -1.
        994   -1    0    0    0    0 -0.00000000000E+00 -0.00000000000E+00  0.11368683772E-12  0.17120000000E+03  0.17120000000E+03 0.  0.
         13    1    1    2    0    0 -0.15673300449E+01  0.46120478519E+02  0.27728242066E+03  0.28109625938E+03  0.10566000000E+00 0. -1.
        994    1    1    2    0    0  0.90957743764E+01 -0.52421886758E+02  0.12400258837E+02  0.17970529692E+03  0.17120000000E+03 0.  0.
        998    1    1    2    0    0 -0.75284443315E+01  0.63014082393E+01  0.12103173168E+04  0.12103984437E+04  0.10000000000E+02 0. -1.
</event>
<event>
 5    1  0.9130022E-009  0.3827614E+03  0.7957747E-01  0.3439222E+00
         13   -1    0    0    0    0  0.00000000000E+00  0.00000000000E+00  0.14999999963E+04  0.15000000000E+04  0.10566000000E+00 0. -1.
        994   -1    0    0    0    0 -0.00000000000E+00 -0.00000000000E+00  0.11368683772E-12  0.17120000000E+03  0.17120000000E+03 0.  0.
         13    1    1    2    0    0  0.16249052440E+02  0.23338571423E+01  0.46623045584E+02  0.49428717745E+02  0.10566000000E+00 0. -1.
        994    1    1    2    0    0 -0.17834165092E+02 -0.71685704184E+01  0.39704526477E+01  0.17232135776E+03  0.17120000000E+03 0.  0.
        998    1    1    2    0    0  0.15851126524E+01  0.48347132760E+01  0.14494064980E+04  0.14494499245E+04  0.10000000000E+02 0. -1.
</event>
<event>
 5    1  0.9130022E-009  0.3799994E+03  0.7957747E-01  0.3451161E+00
         13   -1    0    0    0    0  0.00000000000E+00  0.00000000000E+00  0.14999999963E+04  0.15000000000E+04  0.10566000000E+00 0.  1.
        994   -1    0    0    0    0 -0.00000000000E+00 -0.00000000000E+00  0.11368683772E-12  0.17120000000E+03  0.17120000000E+03 0.  0.
         13    1    1    2    0    0 -0.12766947443E+02 -0.42334435774E+01  0.19913291941E+02  0.24030550378E+02  0.10566000000E+00 0.  1.
        994    1    1    2    0    0  0.12003520151E+02  0.84425612555E+01  0.48537131022E+01  0.17189636374E+03  0.17120000000E+03 0.  0.
        998    1    1    2    0    0  0.76342729171E+00 -0.42091176781E+01  0.14752329912E+04  0.14752730859E+04  0.10000000000E+02 0.  1.
</event>
<event>
 5    1  0.9130022E-009  0.3812196E+03  0.7957747E-01  0.3445865E+00
         13   -1    0    0    0    0  0.00000000000E+00  0.00000000000E+00  0.14999999963E+04  0.15000000000E+04  0.10566000000E+00 0. -1.
        994   -1    0    0    0    0 -0.00000000000E+00 -0.00000000000E+00  0.11368683772E-12  0.17120000000E+03  0.17120000000E+03 0.  0.
         13    1    1    2    0    0 -0.91218656279E+01  0.61215299245E+01  0.15578821201E+02  0.19062853805E+02  0.10566000000E+00 0. -1.
        994    1    1    2    0    0  0.56695310486E+01 -0.98085238212E+01  0.39462402293E+01  0.17161982267E+03  0.17120000000E+03 0.  0.
        998    1    1    2    0    0  0.34523345793E+01  0.36869938967E+01  0.14804749348E+04  0.14805173235E+04  0.10000000000E+02 0. -1.
</event>
<event>
 5    1  0.9130022E-009  0.4047594E+03  0.7957747E-01  0.3349963E+00
         13   -1    0    0    0    0  0.00000000000E+00  0.00000000000E+00  0.14999999963E+04  0.15000000000E+04  0.10566000000E+00 0. -1.
        994   -1    0    0    0    0 -0.00000000000E+00 -0.00000000000E+00  0.11368683772E-12  0.17120000000E+03  0.17120000000E+03 0.  0.
         13    1    1    2    0    0 -0.80154514336E+02  0.17439072024E+02  0.94317017134E+02  0.12499831313E+03  0.10566000000E+00 0. -1.
        994    1    1    2    0    0  0.78045808506E+02 -0.25292032616E+02  0.58067864675E+02  0.19852494062E+03  0.17120000000E+03 0.  0.
        998    1    1    2    0    0  0.21087058299E+01  0.78529605928E+01  0.13476151145E+04  0.13476767462E+04  0.10000000000E+02 0. -1.
</event>
<event>
 5    1  0.9130022E-009  0.3846514E+03  0.7957747E-01  0.3431152E+00
         13   -1    0    0    0    0  0.00000000000E+00  0.00000000000E+00  0.14999999963E+04  0.15000000000E+04  0.10566000000E+00 0.  1.
        994   -1    0    0    0    0 -0.00000000000E+00 -0.00000000000E+00  0.11368683772E-12  0.17120000000E+03  0.17120000000E+03 0.  0.
         13    1    1    2    0    0  0.10567019273E+02 -0.43476474560E+01  0.36089795034E+02  0.37855625795E+02  0.10566000000E+00 0.  1.
        994    1    1    2    0    0 -0.52850077675E+01  0.43286234913E+01  0.19569885138E+01  0.17134741928E+03  0.17120000000E+03 0.  0.
        998    1    1    2    0    0 -0.52820115055E+01  0.19023964685E-01  0.14619532127E+04  0.14619969549E+04  0.10000000000E+02 0.  1.
</event>
<event>
 5    1  0.9130022E-009  0.3763785E+03  0.7957747E-01  0.3467080E+00
         13   -1    0    0    0    0  0.00000000000E+00  0.00000000000E+00  0.14999999963E+04  0.15000000000E+04  0.10566000000E+00 0. -1.
        994   -1    0    0    0    0 -0.00000000000E+00 -0.00000000000E+00  0.11368683772E-12  0.17120000000E+03  0.17120000000E+03 0.  0.
         13    1    1    2    0    0  0.29836887421E+02 -0.72379611075E+01  0.79814173754E+02  0.85515737897E+02  0.10566000000E+00 0. -1.
        994    1    1    2    0    0 -0.11396215868E+02 -0.72901249593E+01  0.65920085156E+01  0.17186015895E+03  0.17120000000E+03 0.  0.
        998    1    1    2    0    0 -0.18440671553E+02  0.14528086067E+02  0.14135938140E+04  0.14138241032E+04  0.10000000000E+02 0. -1.
</event>
<event>
 5    1  0.9130022E-009  0.3798673E+03  0.7957747E-01  0.3451737E+00
         13   -1    0    0    0    0  0.00000000000E+00  0.00000000000E+00  0.14999999963E+04  0.15000000000E+04  0.10566000000E+00 0.  1.
        994   -1    0    0    0    0 -0.00000000000E+00 -0.00000000000E+00  0.11368683772E-12  0.17120000000E+03  0.17120000000E+03 0.  0.
         13    1    1    2    0    0  0.42422352884E+01 -0.10198224716E+02  0.12176040015E+02  0.16439813323E+02  0.10566000000E+00 0.  1.
        994    1    1    2    0    0 -0.96274568420E+01  0.23097290880E+02  0.62971227777E+01  0.17313366665E+03  0.17120000000E+03 0.  0.
        998    1    1    2    0    0  0.53852215536E+01 -0.12899066163E+02  0.14815268335E+04  0.14816265200E+04  0.10000000000E+02 0.  1.
</event>
<event>
 5    1  0.9130022E-009  0.3802102E+03  0.7957747E-01  0.3450244E+00
         13   -1    0    0    0    0  0.00000000000E+00  0.00000000000E+00  0.14999999963E+04  0.15000000000E+04  0.10566000000E+00 0. -1.
        994   -1    0    0    0    0 -0.00000000000E+00 -0.00000000000E+00  0.11368683772E-12  0.17120000000E+03  0.17120000000E+03 0.  0.
         13    1    1    2    0    0 -0.10641459255E+02 -0.11771561280E+01  0.12492404256E+02  0.16452892747E+02  0.10566000000E+00 0. -1.
        994    1    1    2    0    0  0.66476951829E+01  0.63054786313E+01  0.43075511237E+01  0.17149911343E+03  0.17120000000E+03 0.  0.
        998    1    1    2    0    0  0.39937640725E+01 -0.51283225033E+01  0.14832000409E+04  0.14832479938E+04  0.10000000000E+02 0. -1.
</event>
<event>
 5    1  0.9130022E-009  0.3847969E+03  0.7957747E-01  0.3430534E+00
         13   -1    0    0    0    0  0.00000000000E+00  0.00000000000E+00  0.14999999963E+04  0.15000000000E+04  0.10566000000E+00 0.  1.
        994   -1    0    0    0    0 -0.00000000000E+00 -0.00000000000E+00  0.11368683772E-12  0.17120000000E+03  0.17120000000E+03 0.  0.
         13    1    1    2    0    0  0.47057839114E+01 -0.24202417941E+02  0.14873700629E+03  0.15076673918E+03  0.10566000000E+00 0.  1.
        994    1    1    2    0    0  0.11997029578E+02  0.36848824041E+02  0.66887172706E+01  0.17565859925E+03  0.17120000000E+03 0.  0.
        998    1    1    2    0    0 -0.16702813489E+02 -0.12646406100E+02  0.13445742727E+04  0.13447746616E+04  0.10000000000E+02 0.  1.
</event>
<event>
 5    1  0.9130022E-009  0.3744863E+03  0.7957747E-01  0.3475523E+00
         13   -1    0    0    0    0  0.00000000000E+00  0.00000000000E+00  0.14999999963E+04  0.15000000000E+04  0.10566000000E+00 0. -1.
        994   -1    0    0    0    0 -0.00000000000E+00 -0.00000000000E+00  0.11368683772E-12  0.17120000000E+03  0.17120000000E+03 0.  0.
         13    1    1    2    0    0 -0.40228694231E+02  0.17813792881E+02  0.15338099941E+03  0.15956635360E+03  0.10566000000E+00 0. -1.
        994    1    1    2    0    0  0.86412412994E+01  0.84815608935E+01  0.74421316340E+01  0.17178892063E+03  0.17120000000E+03 0.  0.
        998    1    1    2    0    0  0.31587452932E+02 -0.26295353775E+02  0.13391768652E+04  0.13398447258E+04  0.10000000000E+02 0. -1.
</event>
<event>
 5    1  0.9130022E-009  0.3851559E+03  0.7957747E-01  0.3429011E+00
         13   -1    0    0    0    0  0.00000000000E+00  0.00000000000E+00  0.14999999963E+04  0.15000000000E+04  0.10566000000E+00 0. -1.
        994   -1    0    0    0    0 -0.00000000000E+00 -0.00000000000E+00  0.11368683772E-12  0.17120000000E+03  0.17120000000E+03 0.  0.
         13    1    1    2    0    0 -0.49247391326E+00 -0.13824857649E+02  0.59443308394E+02  0.61031854768E+02  0.10566000000E+00 0. -1.
        994    1    1    2    0    0  0.97128579661E+01  0.15002719956E+02  0.26034042438E+01  0.17215004772E+03  0.17120000000E+03 0.  0.
        998    1    1    2    0    0 -0.92203840528E+01 -0.11778623074E+01  0.14379532836E+04  0.14380180975E+04  0.10000000000E+02 0. -1.
</event>
<event>
 5    1  0.9130022E-009  0.3852398E+03  0.7957747E-01  0.3428656E+00
         13   -1    0    0    0    0  0.00000000000E+00  0.00000000000E+00  0.14999999963E+04  0.15000000000E+04  0.10566000000E+00 0.  1.
        994   -1    0    0    0    0 -0.00000000000E+00 -0.00000000000E+00  0.11368683772E-12  0.17120000000E+03  0.17120000000E+03 0.  0.
         13    1    1    2    0    0  0.10559004692E+02 -0.80183926098E+01  0.56596798173E+02  0.58129131489E+02  0.10566000000E+00 0.  1.
        994    1    1    2    0    0 -0.12726731728E+02  0.58038621661E+01  0.21543324285E+01  0.17178397965E+03  0.17120000000E+03 0.  0.
        998    1    1    2    0    0  0.21677270361E+01  0.22145304436E+01  0.14412488657E+04  0.14412868889E+04  0.10000000000E+02 0.  1.
</event>
<event>
 5    1  0.9130022E-009  0.3821819E+03  0.7957747E-01  0.3441713E+00
         13   -1    0    0    0    0  0.00000000000E+00  0.00000000000E+00  0.14999999963E+04  0.15000000000E+04  0.10566000000E+00 0. -1.
        994   -1    0    0    0    0 -0.00000000000E+00 -0.00000000000E+00  0.11368683772E-12  0.17120000000E+03  0.17120000000E+03 0.  0.
         13    1    1    2    0    0 -0.15656818141E+02 -0.11370879988E+02  0.58979142187E+02  0.62072403233E+02  0.10566000000E+00 0. -1.
        994    1    1    2    0    0  0.14902936923E+02  0.11350062023E+02  0.42013295959E+01  0.17227307569E+03  0.17120000000E+03 0.  0.
        998    1    1    2    0    0  0.75388121781E+00  0.20817964663E-01  0.14368195245E+04  0.14368545211E+04  0.10000000000E+02 0.  0.
</event>
<event>
 5    1  0.9130022E-009  0.3845873E+03  0.7957747E-01  0.3431425E+00
         13   -1    0    0    0    0  0.00000000000E+00  0.00000000000E+00  0.14999999963E+04  0.15000000000E+04  0.10566000000E+00 0.  1.
        994   -1    0    0    0    0 -0.00000000000E+00 -0.00000000000E+00  0.11368683772E-12  0.17120000000E+03  0.17120000000E+03 0.  0.
         13    1    1    2    0    0 -0.26164879159E+01 -0.13239443751E+02  0.48625250729E+02  0.50463403100E+02  0.10566000000E+00 0.  1.
        994    1    1    2    0    0  0.29268664341E+01  0.11595160041E+02  0.23062888146E+01  0.17163266953E+03  0.17120000000E+03 0.  0.
        998    1    1    2    0    0 -0.31037851815E+00  0.16442837101E+01  0.14490684567E+04  0.14491039274E+04  0.10000000000E+02 0.  0.
</event>
<event>
 5    1  0.9130022E-009  0.3845301E+03  0.7957747E-01  0.3431668E+00
         13   -1    0    0    0    0  0.00000000000E+00  0.00000000000E+00  0.14999999963E+04  0.15000000000E+04  0.10566000000E+00 0.  1.
        994   -1    0    0    0    0 -0.00000000000E+00 -0.00000000000E+00  0.11368683772E-12  0.17120000000E+03  0.17120000000E+03 0.  0.
         13    1    1    2    0    0  0.18095153234E+02 -0.42392012764E+01  0.10157797221E+03  0.10326422904E+03  0.10566000000E+00 0.  1.
        994    1    1    2    0    0 -0.21539934327E+01 -0.10904791611E+02  0.22706849718E+01  0.17157549411E+03  0.17120000000E+03 0.  0.
        998    1    1    2    0    0 -0.15941159801E+02  0.15143992887E+02  0.13961513391E+04  0.13963602768E+04  0.10000000000E+02 0.  1.
</event>
<event>
 5    1  0.9130022E-009  0.3686671E+03  0.7957747E-01  0.3502039E+00
         13   -1    0    0    0    0  0.00000000000E+00  0.00000000000E+00  0.14999999963E+04  0.15000000000E+04  0.10566000000E+00 0. -1.
        994   -1    0    0    0    0 -0.00000000000E+00 -0.00000000000E+00  0.11368683772E-12  0.17120000000E+03  0.17120000000E+03 0.  0.
         13    1    1    2    0    0 -0.23704142584E+02 -0.65504924065E+02  0.20362752295E+03  0.21521375588E+03  0.10566000000E+00 0. -1.
        994    1    1    2    0    0  0.45262870342E+02  0.56897190593E+02  0.28862886125E+02  0.18822466343E+03  0.17120000000E+03 0.  0.
        998    1    1    2    0    0 -0.21558727757E+02  0.86077334722E+01  0.12675095872E+04  0.12677615807E+04  0.10000000000E+02 0. -1.
</event>
<event>
 5    1  0.9130022E-009  0.3725692E+03  0.7957747E-01  0.3484166E+00
         13   -1    0    0    0    0  0.00000000000E+00  0.00000000000E+00  0.14999999963E+04  0.15000000000E+04  0.10566000000E+00 0.  1.
        994   -1    0    0    0    0 -0.00000000000E+00 -0.00000000000E+00  0.11368683772E-12  0.17120000000E+03  0.17120000000E+03 0.  0.
         13    1    1    2    0    0  0.52960431856E+02 -0.73545993550E+02  0.26220347572E+03  0.27742475439E+03  0.10566000000E+00 0.  1.
        994    1    1    2    0    0 -0.60286152660E+02  0.75001255922E+02  0.45730727499E+02  0.20164411231E+03  0.17120000000E+03 0.  0.
        998    1    1    2    0    0  0.73257208039E+01 -0.14552623719E+01  0.11920657931E+04  0.11921311333E+04  0.10000000000E+02 0.  1.
</event>
<event>
 5    1  0.9130022E-009  0.3818998E+03  0.7957747E-01  0.3442928E+00
         13   -1    0    0    0    0  0.00000000000E+00  0.00000000000E+00  0.14999999963E+04  0.15000000000E+04  0.10566000000E+00 0. -1.
        994   -1    0    0    0    0 -0.00000000000E+00 -0.00000000000E+00  0.11368683772E-12  0.17120000000E+03  0.17120000000E+03 0.  0.
         13    1    1    2    0    0 -0.18197409034E+02 -0.13774138051E+02  0.95653821750E+02  0.98338890343E+02  0.10566000000E+00 0. -1.
        994    1    1    2    0    0 -0.19418926512E+02  0.18013589582E+01  0.44417066834E+01  0.17236446374E+03  0.17120000000E+03 0.  0.
        998    1    1    2    0    0  0.37616335546E+02  0.11972779093E+02  0.13999044678E+04  0.14004966459E+04  0.10000000000E+02 0. -1.
</event>
<event>
 5    1  0.9130022E-009  0.3744597E+03  0.7957747E-01  0.3475643E+00
         13   -1    0    0    0    0  0.00000000000E+00  0.00000000000E+00  0.14999999963E+04  0.15000000000E+04  0.10566000000E+00 0.  1.
        994   -1    0    0    0    0 -0.00000000000E+00 -0.00000000000E+00  0.11368683772E-12  0.17120000000E+03  0.17120000000E+03 0.  0.
         13    1    1    2    0    0 -0.35137078958E+02 -0.43392304693E+02  0.19354397795E+03  0.20143681141E+03  0.10566000000E+00 0.  1.
        994    1    1    2    0    0  0.35216272554E+02  0.44018498799E+02  0.17856336135E+02  0.18112455060E+03  0.17120000000E+03 0.  0.
        998    1    1    2    0    0 -0.79193596149E-01 -0.62619410647E+00  0.12885996822E+04  0.12886386380E+04  0.10000000000E+02 0.  0.
</event>
<event>
 5    1  0.9229114E-009  0.3861789E+03  0.7957747E-01  0.3424688E+00
         13   -1    0    0    0    0  0.00000000000E+00  0.00000000000E+00  0.14999999963E+04  0.15000000000E+04  0.10566000000E+00 0.  1.
        994   -1    0    0    0    0 -0.00000000000E+00 -0.00000000000E+00  0.11368683772E-12  0.17120000000E+03  0.17120000000E+03 0.  0.
         13    1    1    2    0    0  0.11835017989E+02  0.34872403869E+01  0.72975909824E+02  0.74011641483E+02  0.10566000000E+00 0.  1.
        994    1    1    2    0    0 -0.95887642085E+01 -0.13229822597E+01  0.13529711684E+01  0.17147876024E+03  0.17120000000E+03 0.  0.
        998    1    1    2    0    0 -0.22462537802E+01 -0.21642581272E+01  0.14256711153E+04  0.14257095983E+04  0.10000000000E+02 0.  1.
</event>
<event>
 5    1  0.9130022E-009  0.3829529E+03  0.7957747E-01  0.3438401E+00
         13   -1    0    0    0    0  0.00000000000E+00  0.00000000000E+00  0.14999999963E+04  0.15000000000E+04  0.10566000000E+00 0.  1.
        994   -1    0    0    0    0 -0.00000000000E+00 -0.00000000000E+00  0.11368683772E-12  0.17120000000E+03  0.17120000000E+03 0.  0.
         13    1    1    2    0    0 -0.14752515893E+02 -0.82068697039E+01  0.53269015879E+02  0.55880127526E+02  0.10566000000E+00 0.  1.
        994    1    1    2    0    0  0.44721628171E+01  0.12417336958E+02  0.32267887533E+01  0.17173829702E+03  0.17120000000E+03 0.  0.
        998    1    1    2    0    0  0.10280353076E+02 -0.42104672542E+01  0.14435041916E+04  0.14435815755E+04  0.10000000000E+02 0.  1.
</event>
<event>
 5    1  0.9130022E-009  0.3848744E+03  0.7957747E-01  0.3430205E+00
         13   -1    0    0    0    0  0.00000000000E+00  0.00000000000E+00  0.14999999963E+04  0.15000000000E+04  0.10566000000E+00 0.  1.
        994   -1    0    0    0    0 -0.00000000000E+00 -0.00000000000E+00  0.11368683772E-12  0.17120000000E+03  0.17120000000E+03 0.  0.
         13    1    1    2    0    0 -0.10319026506E+02  0.13952126185E+02  0.78381440390E+02  0.80279545930E+02  0.10566000000E+00 0.  1.
        994    1    1    2    0    0  0.30531780875E+02 -0.15310273139E+02  0.55400546316E+01  0.17466174828E+03  0.17120000000E+03 0.  0.
        998    1    1    2    0    0 -0.20212754369E+02  0.13581469536E+01  0.14160785013E+04  0.14162587058E+04  0.10000000000E+02 0.  1.
</event>
<event>
 5    1  0.9130022E-009  0.3846465E+03  0.7957747E-01  0.3431173E+00
         13   -1    0    0    0    0  0.00000000000E+00  0.00000000000E+00  0.14999999963E+04  0.15000000000E+04  0.10566000000E+00 0.  1.
        994   -1    0    0    0    0 -0.00000000000E+00 -0.00000000000E+00  0.11368683772E-12  0.17120000000E+03  0.17120000000E+03 0.  0.
         13    1    1    2    0    0  0.25344371259E+00  0.16440435904E+02  0.69612504373E+02  0.71528065090E+02  0.10566000000E+00 0.  1.
        994    1    1    2    0    0  0.29373168447E+01 -0.22220491374E+02  0.34615579735E+01  0.17269568741E+03  0.17120000000E+03 0.  0.
        998    1    1    2    0    0 -0.31907605573E+01  0.57800554704E+01  0.14269259339E+04  0.14269762475E+04  0.10000000000E+02 0.  1.
</event>
<event>
 5    1  0.9130022E-009  0.3835460E+03  0.7957747E-01  0.3435862E+00
         13   -1    0    0    0    0  0.00000000000E+00  0.00000000000E+00  0.14999999963E+04  0.15000000000E+04  0.10566000000E+00 0.  1.
        994   -1    0    0    0    0 -0.00000000000E+00 -0.00000000000E+00  0.11368683772E-12  0.17120000000E+03  0.17120000000E+03 0.  0.
         13    1    1    2    0    0 -0.11672796356E+02 -0.11227833045E+02  0.54046403701E+02  0.56421124827E+02  0.10566000000E+00 0.  1.
        994    1    1    2    0    0  0.84172704799E+01  0.12384103700E+02  0.30949633548E+01  0.17188145701E+03  0.17120000000E+03 0.  0.
        998    1    1    2    0    0  0.32555258765E+01 -0.11562706556E+01  0.14428586292E+04  0.14428974182E+04  0.10000000000E+02 0.  1.
</event>
<event>
 5    1  0.9130022E-009  0.3841798E+03  0.7957747E-01  0.3433158E+00
         13   -1    0    0    0    0  0.00000000000E+00  0.00000000000E+00  0.14999999963E+04  0.15000000000E+04  0.10566000000E+00 0. -1.
        994   -1    0    0    0    0 -0.00000000000E+00 -0.00000000000E+00  0.11368683772E-12  0.17120000000E+03  0.17120000000E+03 0.  0.
         13    1    1    2    0    0 -0.14469183012E+02  0.69810155577E+01  0.66362704843E+02  0.68279657244E+02  0.10566000000E+00 0. -1.
        994    1    1    2    0    0 -0.42411010472E+01 -0.12542827017E+02  0.26161708114E+01  0.17173116723E+03  0.17120000000E+03 0.  0.
        998    1    1    2    0    0  0.18710284059E+02  0.55618114597E+01  0.14310211206E+04  0.14311891755E+04  0.10000000000E+02 0. -1.
</event>
<event>
 5    1  0.9130022E-009  0.3825030E+03  0.7957747E-01  0.3440332E+00
         13   -1    0    0    0    0  0.00000000000E+00  0.00000000000E+00  0.14999999963E+04  0.15000000000E+04  0.10566000000E+00 0. -1.
        994   -1    0    0    0    0 -0.00000000000E+00 -0.00000000000E+00  0.11368683772E-12  0.17120000000E+03  0.17120000000E+03 0.  0.
         13    1    1    2    0    0  0.16918233712E+02  0.13516222602E+02  0.79574870531E+02  0.82468697634E+02  0.10566000000E+00 0. -1.
        994    1    1    2    0    0 -0.15913784009E+02 -0.60328057070E+01  0.38358379270E+01  0.17208659715E+03  0.17120000000E+03 0.  0.
        998    1    1    2    0    0 -0.10044497035E+01 -0.74834168953E+01  0.14165892878E+04  0.14166447052E+04  0.10000000000E+02 0. -1.
</event>
<event>
 5    1  0.9130022E-009  0.3790686E+03  0.7957747E-01  0.3455224E+00
         13   -1    0    0    0    0  0.00000000000E+00  0.00000000000E+00  0.14999999963E+04  0.15000000000E+04  0.10566000000E+00 0.  1.
        994   -1    0    0    0    0 -0.00000000000E+00 -0.00000000000E+00  0.11368683772E-12  0.17120000000E+03  0.17120000000E+03 0.  0.
         13    1    1    2    0    0  0.39529621114E+02  0.76517694535E+01  0.17523334195E+03  0.17979954343E+03  0.10566000000E+00 0.  1.
        994    1    1    2    0    0 -0.24344890805E+02  0.53776900680E+01  0.66912078514E+01  0.17313522323E+03  0.17120000000E+03 0.  0.
        998    1    1    2    0    0 -0.15184730310E+02 -0.13029459522E+02  0.13180754465E+04  0.13182652333E+04  0.10000000000E+02 0.  1.
</event>
<event>
 5    1  0.9130022E-009  0.3716621E+03  0.7957747E-01  0.3488287E+00
         13   -1    0    0    0    0  0.00000000000E+00  0.00000000000E+00  0.14999999963E+04  0.15000000000E+04  0.10566000000E+00 0.  1.
        994   -1    0    0    0    0 -0.00000000000E+00 -0.00000000000E+00  0.11368683772E-12  0.17120000000E+03  0.17120000000E+03 0.  0.
         13    1    1    2    0    0 -0.44078985432E+02  0.29297280205E+02  0.17232286034E+03  0.18026776457E+03  0.10566000000E+00 0.  1.
        994    1    1    2    0    0  0.15599122431E+02 -0.15290000564E+02  0.10044913428E+02  0.17287989190E+03  0.17120000000E+03 0.  0.
        998    1    1    2    0    0  0.28479863001E+02 -0.14007279640E+02  0.13176322225E+04  0.13180523435E+04  0.10000000000E+02 0.  1.
</event>
<event>
 5    1  0.9130022E-009  0.3808206E+03  0.7957747E-01  0.3447593E+00
         13   -1    0    0    0    0  0.00000000000E+00  0.00000000000E+00  0.14999999963E+04  0.15000000000E+04  0.10566000000E+00 0. -1.
        994   -1    0    0    0    0 -0.00000000000E+00 -0.00000000000E+00  0.11368683772E-12  0.17120000000E+03  0.17120000000E+03 0.  0.
         13    1    1    2    0    0  0.10006404824E+02  0.92672998219E+00  0.11901611729E+02  0.15577114358E+02  0.10566000000E+00 0. -1.
        994    1    1    2    0    0 -0.94112068052E+01 -0.43478048751E+00  0.40154355381E+01  0.17150604529E+03  0.17120000000E+03 0.  0.
        998    1    1    2    0    0 -0.59519801849E+00 -0.49194949468E+00  0.14840829490E+04  0.14841168404E+04  0.10000000000E+02 0. -1.
</event>
<event>
 5    1  0.9130022E-009  0.3834086E+03  0.7957747E-01  0.3436450E+00
         13   -1    0    0    0    0  0.00000000000E+00  0.00000000000E+00  0.14999999963E+04  0.15000000000E+04  0.10566000000E+00 0. -1.
        994   -1    0    0    0    0 -0.00000000000E+00 -0.00000000000E+00  0.11368683772E-12  0.17120000000E+03  0.17120000000E+03 0.  0.
         13    1    1    2    0    0 -0.25763372221E+02 -0.19169035830E+02  0.18662860763E+03  0.18937120065E+03  0.10566000000E+00 0. -1.
        994    1    1    2    0    0  0.25728346558E+02  0.21199159552E+02  0.61047919424E+01  0.17452237870E+03  0.17120000000E+03 0.  0.
        998    1    1    2    0    0  0.35025663782E-01 -0.20301237218E+01  0.13072665967E+04  0.13073064207E+04  0.10000000000E+02 0.  0.
</event>
<event>
 5    1  0.9130022E-009  0.3755180E+03  0.7957747E-01  0.3470910E+00
         13   -1    0    0    0    0  0.00000000000E+00  0.00000000000E+00  0.14999999963E+04  0.15000000000E+04  0.10566000000E+00 0.  1.
        994   -1    0    0    0    0 -0.00000000000E+00 -0.00000000000E+00  0.11368683772E-12  0.17120000000E+03  0.17120000000E+03 0.  0.
         13    1    1    2    0    0  0.16143089255E+03 -0.10471782816E+03  0.91805467851E+03  0.93800328384E+03  0.10566000000E+00 0.  1.
        994    1    1    2    0    0 -0.15605862602E+03  0.10895897944E+03  0.14134176935E+03  0.29242655440E+03  0.17120000000E+03 0.  0.
        998    1    1    2    0    0 -0.53722665329E+01 -0.42411512764E+01  0.44060354842E+03  0.44077016176E+03  0.10000000000E+02 0. -1.
</event>
<event>
 5    1  0.9130022E-009  0.3750044E+03  0.7957747E-01  0.3473203E+00
         13   -1    0    0    0    0  0.00000000000E+00  0.00000000000E+00  0.14999999963E+04  0.15000000000E+04  0.10566000000E+00 0.  1.
        994   -1    0    0    0    0 -0.00000000000E+00 -0.00000000000E+00  0.11368683772E-12  0.17120000000E+03  0.17120000000E+03 0.  0.
         13    1    1    2    0    0 -0.30468556177E+02 -0.19573390794E+02  0.10986464031E+03  0.11567930194E+03  0.10566000000E+00 0.  1.
        994    1    1    2    0    0 -0.62590910949E+01 -0.58527480170E+01  0.69260895147E+01  0.17155419434E+03  0.17120000000E+03 0.  0.
        998    1    1    2    0    0  0.36727647272E+02  0.25426138811E+02  0.13832092665E+04  0.13839665037E+04  0.10000000000E+02 0.  1.
</event>
<event>
 5    1  0.1861884E-008  0.3851465E+03  0.7957747E-01  0.3429051E+00
         13   -1    0    0    0    0  0.00000000000E+00  0.00000000000E+00  0.14999999963E+04  0.15000000000E+04  0.10566000000E+00 0.  1.
        994   -1    0    0    0    0 -0.00000000000E+00 -0.00000000000E+00  0.11368683772E-12  0.17120000000E+03  0.17120000000E+03 0.  0.
         13    1    1    2    0    0 -0.50106253287E+01 -0.97070524013E+01  0.37092010864E+02  0.38667320394E+02  0.10566000000E+00 0.  1.
        994    1    1    2    0    0  0.62403011041E+01  0.11979792570E+02  0.21574203358E+01  0.17174560038E+03  0.17120000000E+03 0.  0.
        998    1    1    2    0    0 -0.12296757755E+01 -0.22727401686E+01  0.14607505651E+04  0.14607870792E+04  0.10000000000E+02 0.  1.
</event>
<event>
 5    1  0.9130022E-009  0.3695787E+03  0.7957747E-01  0.3497829E+00
         13   -1    0    0    0    0  0.00000000000E+00  0.00000000000E+00  0.14999999963E+04  0.15000000000E+04  0.10566000000E+00 0. -1.
        994   -1    0    0    0    0 -0.00000000000E+00 -0.00000000000E+00  0.11368683772E-12  0.17120000000E+03  0.17120000000E+03 0.  0.
         13    1    1    2    0    0  0.77074503204E+02 -0.10834595534E+02  0.31183662605E+03  0.32140311140E+03  0.10566000000E+00 0. -1.
        994    1    1    2    0    0 -0.30254665533E+02 -0.11679768183E+02  0.14396581240E+02  0.17483839202E+03  0.17120000000E+03 0.  0.
        998    1    1    2    0    0 -0.46819837671E+02  0.22514363717E+02  0.11737667890E+04  0.11749584966E+04  0.10000000000E+02 0. -1.
</event>
<event>
 5    1  0.9130022E-009  0.3858367E+03  0.7957747E-01  0.3426131E+00
         13   -1    0    0    0    0  0.00000000000E+00  0.00000000000E+00  0.14999999963E+04  0.15000000000E+04  0.10566000000E+00 0.  1.
        994   -1    0    0    0    0 -0.00000000000E+00 -0.00000000000E+00  0.11368683772E-12  0.17120000000E+03  0.17120000000E+03 0.  0.
         13    1    1    2    0    0  0.11890165390E+02  0.10770707455E+01  0.65448410835E+02  0.66528503359E+02  0.10566000000E+00 0.  1.
        994    1    1    2    0    0  0.63396796953E+01 -0.11334339438E+02  0.17686431289E+01  0.17170098103E+03  0.17120000000E+03 0.  0.
        998    1    1    2    0    0 -0.18229845085E+02  0.10257268692E+02  0.14327829423E+04  0.14329705156E+04  0.10000000000E+02 0.  1.
</event>
<event>
 5    1  0.9130022E-009  0.3826569E+03  0.7957747E-01  0.3439671E+00
         13   -1    0    0    0    0  0.00000000000E+00  0.00000000000E+00  0.14999999963E+04  0.15000000000E+04  0.10566000000E+00 0.  1.
        994   -1    0    0    0    0 -0.00000000000E+00 -0.00000000000E+00  0.11368683772E-12  0.17120000000E+03  0.17120000000E+03 0.  0.
         13    1    1    2    0    0  0.49669480384E+01  0.22228067561E+02  0.11475736614E+03  0.11699581961E+03  0.10566000000E+00 0.  1.
        994    1    1    2    0    0  0.69429233161E+01  0.17400384808E+02  0.39618659147E+01  0.17226756502E+03  0.17120000000E+03 0.  0.
        998    1    1    2    0    0 -0.11909871354E+02 -0.39628452369E+02  0.13812807642E+04  0.13819366154E+04  0.10000000000E+02 0.  1.
</event>
<event>
 5    1  0.9130022E-009  0.3839292E+03  0.7957747E-01  0.3434226E+00
         13   -1    0    0    0    0  0.00000000000E+00  0.00000000000E+00  0.14999999963E+04  0.15000000000E+04  0.10566000000E+00 0. -1.
        994   -1    0    0    0    0 -0.00000000000E+00 -0.00000000000E+00  0.11368683772E-12  0.17120000000E+03  0.17120000000E+03 0.  0.
         13    1    1    2    0    0 -0.12631488878E+02  0.86568843773E+01  0.56451249351E+02  0.58491459853E+02  0.10566000000E+00 0. -1.
        994    1    1    2    0    0  0.10746761514E+02  0.14011867096E+02  0.31924220145E+01  0.17213790071E+03  0.17120000000E+03 0.  0.
        998    1    1    2    0    0  0.18847273637E+01 -0.22668751473E+02  0.14403563249E+04  0.14405706394E+04  0.10000000000E+02 0. -1.
</event>
<event>
 5    1  0.9130022E-009  0.3826740E+03  0.7957747E-01  0.3439597E+00
         13   -1    0    0    0    0  0.00000000000E+00  0.00000000000E+00  0.14999999963E+04  0.15000000000E+04  0.10566000000E+00 0.  1.
        994   -1    0    0    0    0 -0.00000000000E+00 -0.00000000000E+00  0.11368683772E-12  0.17120000000E+03  0.17120000000E+03 0.  0.
         13    1    1    2    0    0  0.30324043781E+02 -0.19930453948E+02  0.21812620969E+03  0.22112400400E+03  0.10566000000E+00 0.  1.
        994    1    1    2    0    0 -0.45156113657E+02 -0.11221158636E+02  0.99967428810E+01  0.17769176647E+03  0.17120000000E+03 0.  0.
        998    1    1    2    0    0  0.14832069876E+02  0.31151612584E+02  0.12718770437E+04  0.12723842295E+04  0.10000000000E+02 0.  1.
</event>
<event>
 5    1  0.9130022E-009  0.3818828E+03  0.7957747E-01  0.3443001E+00
         13   -1    0    0    0    0  0.00000000000E+00  0.00000000000E+00  0.14999999963E+04  0.15000000000E+04  0.10566000000E+00 0.  1.
        994   -1    0    0    0    0 -0.00000000000E+00 -0.00000000000E+00  0.11368683772E-12  0.17120000000E+03  0.17120000000E+03 0.  0.
         13    1    1    2    0    0  0.90836117455E+01 -0.17532081895E+02  0.61602557853E+02  0.64689815241E+02  0.10566000000E+00 0.  1.
        994    1    1    2    0    0 -0.21344543203E+01  0.72670044787E+01  0.33763484666E+01  0.17140071464E+03  0.17120000000E+03 0.  0.
        998    1    1    2    0    0 -0.69491574253E+01  0.10265077416E+02  0.14350210900E+04  0.14351094701E+04  0.10000000000E+02 0.  1.
</event>
<event>
 5    1  0.9130022E-009  0.3788559E+03  0.7957747E-01  0.3456155E+00
         13   -1    0    0    0    0  0.00000000000E+00  0.00000000000E+00  0.14999999963E+04  0.15000000000E+04  0.10566000000E+00 0. -1.
        994   -1    0    0    0    0 -0.00000000000E+00 -0.00000000000E+00  0.11368683772E-12  0.17120000000E+03  0.17120000000E+03 0.  0.
         13    1    1    2    0    0 -0.12257026820E+02  0.32139243123E+01  0.15063406385E+02  0.19684547034E+02  0.10566000000E+00 0. -1.
        994    1    1    2    0    0  0.68183420055E+01 -0.24888381299E+01  0.48886074367E+01  0.17142351818E+03  0.17120000000E+03 0.  0.
        998    1    1    2    0    0  0.54386848145E+01 -0.72508618241E+00  0.14800479825E+04  0.14800919348E+04  0.10000000000E+02 0. -1.
</event>
<event>
 5    1  0.9130022E-009  0.3815290E+03  0.7957747E-01  0.3444528E+00
         13   -1    0    0    0    0  0.00000000000E+00  0.00000000000E+00  0.14999999963E+04  0.15000000000E+04  0.10566000000E+00 0. -1.
        994   -1    0    0    0    0 -0.00000000000E+00 -0.00000000000E+00  0.11368683772E-12  0.17120000000E+03  0.17120000000E+03 0.  0.
         13    1    1    2    0    0 -0.22719471191E+02 -0.20097937749E+02  0.13435595611E+03  0.13773756052E+03  0.10566000000E+00 0. -1.
        994    1    1    2    0    0  0.14156915157E+02  0.13534724607E+02  0.46402684865E+01  0.17237917249E+03  0.17120000000E+03 0.  0.
        998    1    1    2    0    0  0.85625560337E+01  0.65632131422E+01  0.13610037717E+04  0.13610832670E+04  0.10000000000E+02 0. -1.
</event>
<event>
 5    1  0.9130022E-009  0.3732510E+03  0.7957747E-01  0.3481082E+00
         13   -1    0    0    0    0  0.00000000000E+00  0.00000000000E+00  0.14999999963E+04  0.15000000000E+04  0.10566000000E+00 0.  1.
        994   -1    0    0    0    0 -0.00000000000E+00 -0.00000000000E+00  0.11368683772E-12  0.17120000000E+03  0.17120000000E+03 0.  0.
         13    1    1    2    0    0 -0.48078420557E+02 -0.71390719811E+01  0.90819030082E+02  0.10300780680E+03  0.10566000000E+00 0.  1.
        994    1    1    2    0    0  0.20110511794E+02  0.33538833669E+02  0.18095714080E+02  0.17653945994E+03  0.17120000000E+03 0.  0.
        998    1    1    2    0    0  0.27967908763E+02 -0.26399761688E+02  0.13910852521E+04  0.13916527333E+04  0.10000000000E+02 0.  1.
</event>
<event>
 5    1  0.9130022E-009  0.3839901E+03  0.7957747E-01  0.3433967E+00
         13   -1    0    0    0    0  0.00000000000E+00  0.00000000000E+00  0.14999999963E+04  0.15000000000E+04  0.10566000000E+00 0.  1.
        994   -1    0    0    0    0 -0.00000000000E+00 -0.00000000000E+00  0.11368683772E-12  0.17120000000E+03  0.17120000000E+03 0.  0.
         13    1    1    2    0    0 -0.19452859176E+02  0.10660341153E+02  0.12200573751E+03  0.12400591821E+03  0.10566000000E+00 0.  1.
        994    1    1    2    0    0  0.72893754759E+01  0.70312669516E+00  0.23093382579E+01  0.17137211683E+03  0.17120000000E+03 0.  0.
        998    1    1    2    0    0  0.12163483700E+02 -0.11363467849E+02  0.13756849205E+04  0.13758219650E+04  0.10000000000E+02 0.  1.
</event>
<event>
 5    1  0.9130022E-009  0.3789227E+03  0.7957747E-01  0.3455863E+00
         13   -1    0    0    0    0  0.00000000000E+00  0.00000000000E+00  0.14999999963E+04  0.15000000000E+04  0.10566000000E+00 0. -1.
        994   -1    0    0    0    0 -0.00000000000E+00 -0.00000000000E+00  0.11368683772E-12  0.17120000000E+03  0.17120000000E+03 0.  0.
         13    1    1    2    0    0  0.19787264072E+02 -0.59065274539E+02  0.37298032904E+03  0.37814624088E+03  0.10566000000E+00 0. -1.
        994    1    1    2    0    0 -0.15965479766E+02  0.42831111036E+02  0.11719752519E+02  0.17758432706E+03  0.17120000000E+03 0.  0.
        998    1    1    2    0    0 -0.38217843063E+01  0.16234163503E+02  0.11152999147E+04  0.11154694321E+04  0.10000000000E+02 0. -1.
</event>
<event>
 5    1  0.9130022E-009  0.3844128E+03  0.7957747E-01  0.3432167E+00
         13   -1    0    0    0    0  0.00000000000E+00  0.00000000000E+00  0.14999999963E+04  0.15000000000E+04  0.10566000000E+00 0.  1.
        994   -1    0    0    0    0 -0.00000000000E+00 -0.00000000000E+00  0.11368683772E-12  0.17120000000E+03  0.17120000000E+03 0.  0.
         13    1    1    2    0    0 -0.28561264581E+02  0.92855185244E+01  0.17248234931E+03  0.17507752190E+03  0.10566000000E+00 0.  1.
        994    1    1    2    0    0  0.55512858407E+02  0.22648080145E+01  0.12159817144E+02  0.18039985576E+03  0.17120000000E+03 0.  0.
        998    1    1    2    0    0 -0.26951593826E+02 -0.11550326539E+02  0.13153578298E+04  0.13157226223E+04  0.10000000000E+02 0.  1.
</event>
<event>
 5    1  0.9130022E-009  0.3846418E+03  0.7957747E-01  0.3431193E+00
         13   -1    0    0    0    0  0.00000000000E+00  0.00000000000E+00  0.14999999963E+04  0.15000000000E+04  0.10566000000E+00 0. -1.
        994   -1    0    0    0    0 -0.00000000000E+00 -0.00000000000E+00  0.11368683772E-12  0.17120000000E+03  0.17120000000E+03 0.  0.
         13    1    1    2    0    0 -0.17268313227E+00 -0.13503582598E+02  0.50345349090E+02  0.52125252052E+02  0.10566000000E+00 0. -1.
        994    1    1    2    0    0 -0.70240935171E+01  0.86571917994E+01  0.22173729402E+01  0.17157692619E+03  0.17120000000E+03 0.  0.
        998    1    1    2    0    0  0.71967766494E+01  0.48463907983E+01  0.14474372742E+04  0.14474978218E+04  0.10000000000E+02 0. -1.
</event>
<event>
 5    1  0.9130022E-009  0.3846173E+03  0.7957747E-01  0.3431297E+00
         13   -1    0    0    0    0  0.00000000000E+00  0.00000000000E+00  0.14999999963E+04  0.15000000000E+04  0.10566000000E+00 0. -1.
        994   -1    0    0    0    0 -0.00000000000E+00 -0.00000000000E+00  0.11368683772E-12  0.17120000000E+03  0.17120000000E+03 0.  0.
         13    1    1    2    0    0 -0.85272980590E+01  0.94836555121E+01  0.46761369408E+02  0.48469489032E+02  0.10566000000E+00 0. -1.
        994    1    1    2    0    0  0.45772698938E+01  0.58858242242E+01  0.20033253752E+01  0.17137399931E+03  0.17120000000E+03 0.  0.
        998    1    1    2    0    0  0.39500281653E+01 -0.15369479736E+02  0.14512353015E+04  0.14513565117E+04  0.10000000000E+02 0. -1.
</event>
<event>
 5    1  0.9130022E-009  0.3812641E+03  0.7957747E-01  0.3445673E+00
         13   -1    0    0    0    0  0.00000000000E+00  0.00000000000E+00  0.14999999963E+04  0.15000000000E+04  0.10566000000E+00 0. -1.
        994   -1    0    0    0    0 -0.00000000000E+00 -0.00000000000E+00  0.11368683772E-12  0.17120000000E+03  0.17120000000E+03 0.  0.
         13    1    1    2    0    0  0.57364970197E+00  0.26527511104E+02  0.92469461524E+02  0.96201093538E+02  0.10566000000E+00 0. -1.
        994    1    1    2    0    0 -0.32237518630E+01 -0.30129711601E+02  0.65590912753E+01  0.17398463661E+03  0.17120000000E+03 0.  0.
        998    1    1    2    0    0  0.26501021611E+01  0.36022004970E+01  0.14009714435E+04  0.14010142699E+04  0.10000000000E+02 0. -1.
</event>
<event>
 5    1  0.9130022E-009  0.3824485E+03  0.7957747E-01  0.3440566E+00
         13   -1    0    0    0    0  0.00000000000E+00  0.00000000000E+00  0.14999999963E+04  0.15000000000E+04  0.10566000000E+00 0. -1.
        994   -1    0    0    0    0 -0.00000000000E+00 -0.00000000000E+00  0.11368683772E-12  0.17120000000E+03  0.17120000000E+03 0.  0.
         13    1    1    2    0    0 -0.69528984690E+02 -0.20802598957E+02  0.14345346045E+03  0.16076670773E+03  0.10566000000E+00 0. -1.
        994    1    1    2    0    0  0.41918187564E+02  0.23588788951E+02  0.26186550892E+02  0.17974632364E+03  0.17120000000E+03 0.  0.
        998    1    1    2    0    0  0.27610797127E+02 -0.27861899942E+01  0.13303599849E+04  0.13306869686E+04  0.10000000000E+02 0. -1.
</event>
<event>
 5    1  0.9130022E-009  0.3851720E+03  0.7957747E-01  0.3428943E+00
         13   -1    0    0    0    0  0.00000000000E+00  0.00000000000E+00  0.14999999963E+04  0.15000000000E+04  0.10566000000E+00 0.  1.
        994   -1    0    0    0    0 -0.00000000000E+00 -0.00000000000E+00  0.11368683772E-12  0.17120000000E+03  0.17120000000E+03 0.  0.
         13    1    1    2    0    0  0.86491232623E+01 -0.10438786634E+02  0.66611703179E+02  0.67977244458E+02  0.10566000000E+00 0.  1.
        994    1    1    2    0    0  0.29152930937E+01 -0.75093713558E+01  0.17580900594E+01  0.17139842611E+03  0.17120000000E+03 0.  0.
        998    1    1    2    0    0 -0.11564416356E+02  0.17948157989E+02  0.14316302030E+04  0.14318243294E+04  0.10000000000E+02 0.  1.
</event>
<event>
 5    1  0.9130022E-009  0.3110132E+03  0.7957747E-01  0.3820402E+00
         13   -1    0    0    0    0  0.00000000000E+00  0.00000000000E+00  0.14999999963E+04  0.15000000000E+04  0.10566000000E+00 0. -1.
        994   -1    0    0    0    0 -0.00000000000E+00 -0.00000000000E+00  0.11368683772E-12  0.17120000000E+03  0.17120000000E+03 0.  0.
         13    1    1    2    0    0  0.16180266546E+03 -0.11964311080E+03  0.69226845448E+03  0.72092315870E+03  0.10566000000E+00 0. -1.
        994    1    1    2    0    0 -0.16132088695E+03  0.12025878504E+03  0.17372393648E+03  0.31618989556E+03  0.17120000000E+03 0.  0.
        998    1    1    2    0    0 -0.48177850199E+00 -0.61567423209E+00  0.63400760532E+03  0.63408694575E+03  0.10000000000E+02 0.  0.
</event>
<event>
 5    1  0.9130022E-009  0.3842885E+03  0.7957747E-01  0.3432695E+00
         13   -1    0    0    0    0  0.00000000000E+00  0.00000000000E+00  0.14999999963E+04  0.15000000000E+04  0.10566000000E+00 0.  1.
        994   -1    0    0    0    0 -0.00000000000E+00 -0.00000000000E+00  0.11368683772E-12  0.17120000000E+03  0.17120000000E+03 0.  0.
         13    1    1    2    0    0  0.10703309540E+02  0.63322576004E+01  0.40438845522E+02  0.42308033665E+02  0.10566000000E+00 0.  1.
        994    1    1    2    0    0  0.77982280240E+01 -0.97544895307E+01  0.24980443978E+01  0.17167306909E+03  0.17120000000E+03 0.  0.
        998    1    1    2    0    0 -0.18501537564E+02  0.34222319303E+01  0.14570631064E+04  0.14572188972E+04  0.10000000000E+02 0.  1.
</event>
<event>
 5    1  0.9130022E-009  0.3840034E+03  0.7957747E-01  0.3433910E+00
         13   -1    0    0    0    0  0.00000000000E+00  0.00000000000E+00  0.14999999963E+04  0.15000000000E+04  0.10566000000E+00 0.  1.
        994   -1    0    0    0    0 -0.00000000000E+00 -0.00000000000E+00  0.11368683772E-12  0.17120000000E+03  0.17120000000E+03 0.  0.
         13    1    1    2    0    0 -0.14041751009E+02  0.14396906748E+02  0.93089095249E+02  0.95236718306E+02  0.10566000000E+00 0.  1.
        994    1    1    2    0    0  0.96490364641E+01 -0.11942238514E+02  0.29038339723E+01  0.17191158547E+03  0.17120000000E+03 0.  0.
        998    1    1    2    0    0  0.43927145447E+01 -0.24546682335E+01  0.14040070671E+04  0.14040516962E+04  0.10000000000E+02 0.  0.
</event>
<event>
 5    1  0.9130022E-009  0.3850259E+03  0.7957747E-01  0.3429563E+00
         13   -1    0    0    0    0  0.00000000000E+00  0.00000000000E+00  0.14999999963E+04  0.15000000000E+04  0.10566000000E+00 0. -1.
        994   -1    0    0    0    0 -0.00000000000E+00 -0.00000000000E+00  0.11368683772E-12  0.17120000000E+03  0.17120000000E+03 0.  0.
         13    1    1    2    0    0 -0.10095825582E+02 -0.13565229062E+02  0.85079880123E+02  0.86744096626E+02  0.10566000000E+00 0.  1.
        994    1    1    2    0    0  0.11908336906E+02  0.11527118840E+02  0.25210792058E+01  0.17201883268E+03  0.17120000000E+03 0.  0.
        998    1    1    2    0    0 -0.18125113234E+01  0.20381102212E+01  0.14123990369E+04  0.14124370707E+04  0.10000000000E+02 0. -1.
</event>
<event>
 5    1  0.9130022E-009  0.3804265E+03  0.7957747E-01  0.3449303E+00
         13   -1    0    0    0    0  0.00000000000E+00  0.00000000000E+00  0.14999999963E+04  0.15000000000E+04  0.10566000000E+00 0.  1.
        994   -1    0    0    0    0 -0.00000000000E+00 -0.00000000000E+00  0.11368683772E-12  0.17120000000E+03  0.17120000000E+03 0.  0.
         13    1    1    2    0    0  0.15544005072E+02  0.12764876793E+02  0.50249866203E+02  0.54125949328E+02  0.10566000000E+00 0.  1.
        994    1    1    2    0    0 -0.74084007803E+01 -0.11148481973E+02  0.45163461133E+01  0.17178186876E+03  0.17120000000E+03 0.  0.
        998    1    1    2    0    0 -0.81356042918E+01 -0.16163948205E+01  0.14452337840E+04  0.14452921819E+04  0.10000000000E+02 0.  1.
</event>
<event>
 5    1  0.9130022E-009  0.3768547E+03  0.7957747E-01  0.3464969E+00
         13   -1    0    0    0    0  0.00000000000E+00  0.00000000000E+00  0.14999999963E+04  0.15000000000E+04  0.10566000000E+00 0.  1.
        994   -1    0    0    0    0 -0.00000000000E+00 -0.00000000000E+00  0.11368683772E-12  0.17120000000E+03  0.17120000000E+03 0.  0.
         13    1    1    2    0    0  0.10870087515E+02  0.42299598118E+01  0.94249971185E+01  0.14996436154E+02  0.10566000000E+00 0.  1.
        994    1    1    2    0    0 -0.75632577915E+00 -0.40963384475E+01  0.57880153481E+01  0.17134845532E+03  0.17120000000E+03 0.  0.
        998    1    1    2    0    0 -0.10113761736E+02 -0.13362136431E+00  0.14847869838E+04  0.14848551085E+04  0.10000000000E+02 0.  1.
</event>
<event>
 5    1  0.9130022E-009  0.3848286E+03  0.7957747E-01  0.3430399E+00
         13   -1    0    0    0    0  0.00000000000E+00  0.00000000000E+00  0.14999999963E+04  0.15000000000E+04  0.10566000000E+00 0. -1.
        994   -1    0    0    0    0 -0.00000000000E+00 -0.00000000000E+00  0.11368683772E-12  0.17120000000E+03  0.17120000000E+03 0.  0.
         13    1    1    2    0    0  0.20872215957E+01  0.14724393371E+02  0.62181847193E+02  0.63935573341E+02  0.10566000000E+00 0. -1.
        994    1    1    2    0    0  0.17245190196E+01 -0.16018652265E+02  0.25698280757E+01  0.17197562386E+03  0.17120000000E+03 0.  0.
        998    1    1    2    0    0 -0.38117406152E+01  0.12942588947E+01  0.14352483210E+04  0.14352888028E+04  0.10000000000E+02 0. -1.
</event>
<event>
 5    1  0.9130022E-009  0.3698377E+03  0.7957747E-01  0.3496637E+00
         13   -1    0    0    0    0  0.00000000000E+00  0.00000000000E+00  0.14999999963E+04  0.15000000000E+04  0.10566000000E+00 0. -1.
        994   -1    0    0    0    0 -0.00000000000E+00 -0.00000000000E+00  0.11368683772E-12  0.17120000000E+03  0.17120000000E+03 0.  0.
         13    1    1    2    0    0  0.13502833865E+02  0.26197108958E+02  0.41356373972E+02  0.50783618149E+02  0.10566000000E+00 0. -1.
        994    1    1    2    0    0 -0.10811713230E+02 -0.30507262968E+02  0.12986760580E+02  0.17471600438E+03  0.17120000000E+03 0.  0.
        998    1    1    2    0    0 -0.26911206352E+01  0.43101540098E+01  0.14456568617E+04  0.14457003775E+04  0.10000000000E+02 0. -1.
</event>
<event>
 5    1  0.9130022E-009  0.3794750E+03  0.7957747E-01  0.3453447E+00
         13   -1    0    0    0    0  0.00000000000E+00  0.00000000000E+00  0.14999999963E+04  0.15000000000E+04  0.10566000000E+00 0. -1.
        994   -1    0    0    0    0 -0.00000000000E+00 -0.00000000000E+00  0.11368683772E-12  0.17120000000E+03  0.17120000000E+03 0.  0.
         13    1    1    2    0    0  0.14646770659E+02  0.13476621893E+01  0.22345867706E+02  0.26752440108E+02  0.10566000000E+00 0. -1.
        994    1    1    2    0    0 -0.17103875209E+02 -0.96750607956E+00  0.53817643750E+01  0.17213913559E+03  0.17120000000E+03 0.  0.
        998    1    1    2    0    0  0.24571045498E+01 -0.38015610974E+00  0.14722723642E+04  0.14723084243E+04  0.10000000000E+02 0. -1.
</event>
<event>
 5    1  0.9130022E-009  0.3739537E+03  0.7957747E-01  0.3477915E+00
         13   -1    0    0    0    0  0.00000000000E+00  0.00000000000E+00  0.14999999963E+04  0.15000000000E+04  0.10566000000E+00 0.  1.
        994   -1    0    0    0    0 -0.00000000000E+00 -0.00000000000E+00  0.11368683772E-12  0.17120000000E+03  0.17120000000E+03 0.  0.
         13    1    1    2    0    0 -0.55104670146E+02  0.83078866016E+01  0.24311779989E+03  0.24942297697E+03  0.10566000000E+00 0.  1.
        994    1    1    2    0    0  0.10399952334E+02 -0.11525247804E+02  0.80394931613E+01  0.17209027804E+03  0.17120000000E+03 0.  0.
        998    1    1    2    0    0  0.44704717812E+02  0.32173612028E+01  0.12488427032E+04  0.12496867450E+04  0.10000000000E+02 0.  1.
</event>
<event>
 5    1  0.9130022E-009  0.3807137E+03  0.7957747E-01  0.3448057E+00
         13   -1    0    0    0    0  0.00000000000E+00  0.00000000000E+00  0.14999999963E+04  0.15000000000E+04  0.10566000000E+00 0.  1.
        994   -1    0    0    0    0 -0.00000000000E+00 -0.00000000000E+00  0.11368683772E-12  0.17120000000E+03  0.17120000000E+03 0.  0.
         13    1    1    2    0    0  0.41230174553E+02  0.32309959025E+02  0.29551943976E+03  0.30012599218E+03  0.10566000000E+00 0.  1.
        994    1    1    2    0    0 -0.36909114010E+02 -0.36776562866E+02  0.12880863804E+02  0.17941615012E+03  0.17120000000E+03 0.  0.
        998    1    1    2    0    0 -0.43210605429E+01  0.44666038406E+01  0.11915996927E+04  0.11916578577E+04  0.10000000000E+02 0.  1.
</event>
<event>
 5    1  0.9130022E-009  0.3813318E+03  0.7957747E-01  0.3445380E+00
         13   -1    0    0    0    0  0.00000000000E+00  0.00000000000E+00  0.14999999963E+04  0.15000000000E+04  0.10566000000E+00 0. -1.
        994   -1    0    0    0    0 -0.00000000000E+00 -0.00000000000E+00  0.11368683772E-12  0.17120000000E+03  0.17120000000E+03 0.  0.
         13    1    1    2    0    0 -0.32042133458E+02 -0.93734733143E+01  0.14224648003E+03  0.14611171262E+03  0.10566000000E+00 0. -1.
        994    1    1    2    0    0  0.31198922408E+02  0.28439934080E+02  0.94168718226E+01  0.17657950075E+03  0.17120000000E+03 0.  0.
        998    1    1    2    0    0  0.84321104992E+00 -0.19066460765E+02  0.13483366444E+04  0.13485087866E+04  0.10000000000E+02 0. -1.
</event>
<event>
 5    1  0.9130022E-009  0.3831372E+03  0.7957747E-01  0.3437611E+00
         13   -1    0    0    0    0  0.00000000000E+00  0.00000000000E+00  0.14999999963E+04  0.15000000000E+04  0.10566000000E+00 0.  1.
        994   -1    0    0    0    0 -0.00000000000E+00 -0.00000000000E+00  0.11368683772E-12  0.17120000000E+03  0.17120000000E+03 0.  0.
         13    1    1    2    0    0 -0.92556189175E+01 -0.22143102867E+02  0.11196002336E+03  0.11450345620E+03  0.10566000000E+00 0.  1.
        994    1    1    2    0    0 -0.13143214365E+02  0.21953104300E+02  0.47269219505E+01  0.17316600897E+03  0.17120000000E+03 0.  0.
        998    1    1    2    0    0  0.22398833283E+02  0.18999856674E+00  0.13833130510E+04  0.13835305348E+04  0.10000000000E+02 0.  1.
</event>
<event>
 5    1  0.9130022E-009  0.3719921E+03  0.7957747E-01  0.3486785E+00
         13   -1    0    0    0    0  0.00000000000E+00  0.00000000000E+00  0.14999999963E+04  0.15000000000E+04  0.10566000000E+00 0.  1.
        994   -1    0    0    0    0 -0.00000000000E+00 -0.00000000000E+00  0.11368683772E-12  0.17120000000E+03  0.17120000000E+03 0.  0.
         13    1    1    2    0    0  0.12879861491E+02  0.61083964585E+02  0.19583255093E+03  0.20554206559E+03  0.10566000000E+00 0.  1.
        994    1    1    2    0    0 -0.61033718152E+02 -0.60143267557E+02  0.33883413828E+02  0.19442184321E+03  0.17120000000E+03 0.  0.
        998    1    1    2    0    0  0.48153856660E+02 -0.94069702789E+00  0.12702840315E+04  0.12712360912E+04  0.10000000000E+02 0.  1.
</event>
<event>
 5    1  0.9130022E-009  0.3014354E+03  0.7957747E-01  0.3885824E+00
         13   -1    0    0    0    0  0.00000000000E+00  0.00000000000E+00  0.14999999963E+04  0.15000000000E+04  0.10566000000E+00 0. -1.
        994   -1    0    0    0    0 -0.00000000000E+00 -0.00000000000E+00  0.11368683772E-12  0.17120000000E+03  0.17120000000E+03 0.  0.
         13    1    1    2    0    0  0.16289294203E+03  0.14082470431E+03  0.66948493209E+03  0.70326082883E+03  0.10566000000E+00 0. -1.
        994    1    1    2    0    0 -0.73299278835E+02 -0.18878740301E+03  0.20778943240E+03  0.33689665483E+03  0.17120000000E+03 0.  0.
        998    1    1    2    0    0 -0.89593663191E+02  0.47962698702E+02  0.62272563179E+03  0.63104251634E+03  0.10000000000E+02 0. -1.
</event>
<event>
 5    1  0.9130022E-009  0.3851666E+03  0.7957747E-01  0.3428966E+00
         13   -1    0    0    0    0  0.00000000000E+00  0.00000000000E+00  0.14999999963E+04  0.15000000000E+04  0.10566000000E+00 0.  1.
        994   -1    0    0    0    0 -0.00000000000E+00 -0.00000000000E+00  0.11368683772E-12  0.17120000000E+03  0.17120000000E+03 0.  0.
         13    1    1    2    0    0 -0.12503396957E+02  0.10149458442E+02  0.82125303220E+02  0.83689443989E+02  0.10566000000E+00 0.  1.
        994    1    1    2    0    0  0.14282479897E+02 -0.39087228658E+01  0.22684940864E+01  0.17185416321E+03  0.17120000000E+03 0.  0.
        998    1    1    2    0    0 -0.17790829396E+01 -0.62407355760E+01  0.14156061990E+04  0.14156563928E+04  0.10000000000E+02 0.  1.
</event>
<event>
 5    1  0.9130022E-009  0.3810084E+03  0.7957747E-01  0.3446779E+00
         13   -1    0    0    0    0  0.00000000000E+00  0.00000000000E+00  0.14999999963E+04  0.15000000000E+04  0.10566000000E+00 0. -1.
        994   -1    0    0    0    0 -0.00000000000E+00 -0.00000000000E+00  0.11368683772E-12  0.17120000000E+03  0.17120000000E+03 0.  0.
         13    1    1    2    0    0 -0.20009502055E+02 -0.13202004597E+02  0.10401053105E+03  0.10673741065E+03  0.10566000000E+00 0. -1.
        994    1    1    2    0    0 -0.49611029026E+01 -0.51952213450E+02  0.12753417628E+02  0.17943169922E+03  0.17120000000E+03 0.  0.
        998    1    1    2    0    0  0.24970604958E+02  0.65154218047E+02  0.13832360476E+04  0.13850308901E+04  0.10000000000E+02 0. -1.
</event>
<event>
 5    1  0.9130022E-009  0.3696499E+03  0.7957747E-01  0.3497502E+00
         13   -1    0    0    0    0  0.00000000000E+00  0.00000000000E+00  0.14999999963E+04  0.15000000000E+04  0.10566000000E+00 0.  1.
        994   -1    0    0    0    0 -0.00000000000E+00 -0.00000000000E+00  0.11368683772E-12  0.17120000000E+03  0.17120000000E+03 0.  0.
         13    1    1    2    0    0  0.13022674650E+02 -0.12268446682E+03  0.50634301956E+03  0.52115672602E+03  0.10566000000E+00 0.  1.
        994    1    1    2    0    0 -0.10757300799E+02  0.12370450484E+03  0.64892455475E+02  0.22122159663E+03  0.17120000000E+03 0.  0.
        998    1    1    2    0    0 -0.22653738504E+01 -0.10200380119E+01  0.92876452125E+03  0.92882167735E+03  0.10000000000E+02 0.  1.
</event>
<event>
 5    1  0.9130022E-009  0.3817860E+03  0.7957747E-01  0.3443418E+00
         13   -1    0    0    0    0  0.00000000000E+00  0.00000000000E+00  0.14999999963E+04  0.15000000000E+04  0.10566000000E+00 0.  1.
        994   -1    0    0    0    0 -0.00000000000E+00 -0.00000000000E+00  0.11368683772E-12  0.17120000000E+03  0.17120000000E+03 0.  0.
         13    1    1    2    0    0 -0.17790980455E+01 -0.18399799405E+02  0.50526044106E+02  0.53801580879E+02  0.10566000000E+00 0.  1.
        994    1    1    2    0    0 -0.44905787536E+01  0.18223673852E+02  0.44058357384E+01  0.17228209128E+03  0.17120000000E+03 0.  0.
        998    1    1    2    0    0  0.62696767991E+01  0.17612555289E+00  0.14450681164E+04  0.14451163278E+04  0.10000000000E+02 0.  1.
</event>
<event>
 5    1  0.9130022E-009  0.3829423E+03  0.7957747E-01  0.3438446E+00
         13   -1    0    0    0    0  0.00000000000E+00  0.00000000000E+00  0.14999999963E+04  0.15000000000E+04  0.10566000000E+00 0. -1.
        994   -1    0    0    0    0 -0.00000000000E+00 -0.00000000000E+00  0.11368683772E-12  0.17120000000E+03  0.17120000000E+03 0.  0.
         13    1    1    2    0    0 -0.75833780177E+01 -0.81680698217E+01  0.23691053485E+02  0.26182096288E+02  0.10566000000E+00 0. -1.
        994    1    1    2    0    0  0.34067361187E+01 -0.15322577151E+02  0.34713464747E+01  0.17195312579E+03  0.17120000000E+03 0.  0.
        998    1    1    2    0    0  0.41766418990E+01  0.23490646973E+02  0.14728375963E+04  0.14730647779E+04  0.10000000000E+02 0. -1.
</event>
<event>
 5    1  0.9130022E-009  0.3696272E+03  0.7957747E-01  0.3497606E+00
         13   -1    0    0    0    0  0.00000000000E+00  0.00000000000E+00  0.14999999963E+04  0.15000000000E+04  0.10566000000E+00 0.  1.
        994   -1    0    0    0    0 -0.00000000000E+00 -0.00000000000E+00  0.11368683772E-12  0.17120000000E+03  0.17120000000E+03 0.  0.
         13    1    1    2    0    0  0.22541354096E+02 -0.18974392304E+02  0.40494990095E+02  0.50079892119E+02  0.10566000000E+00 0.  1.
        994    1    1    2    0    0 -0.28928564376E+02  0.19363563065E+02  0.13671041472E+02  0.17523740122E+03  0.17120000000E+03 0.  0.
        998    1    1    2    0    0  0.63872102796E+01 -0.38917076082E+00  0.14458339647E+04  0.14458827067E+04  0.10000000000E+02 0.  1.
</event>
<event>
 5    1  0.9315195E-009  0.3862706E+03  0.7957747E-01  0.3424301E+00
         13   -1    0    0    0    0  0.00000000000E+00  0.00000000000E+00  0.14999999963E+04  0.15000000000E+04  0.10566000000E+00 0. -1.
        994   -1    0    0    0    0 -0.00000000000E+00 -0.00000000000E+00  0.11368683772E-12  0.17120000000E+03  0.17120000000E+03 0.  0.
         13    1    1    2    0    0  0.22646506851E+01 -0.10643654300E+02  0.59853297203E+02  0.60834565583E+02  0.10566000000E+00 0. -1.
        994    1    1    2    0    0  0.98413504880E+00  0.83637608499E+01  0.12329244100E+01  0.17141143812E+03  0.17120000000E+03 0.  0.
        998    1    1    2    0    0 -0.32487857339E+01  0.22798934502E+01  0.14389137747E+04  0.14389539963E+04  0.10000000000E+02 0.  1.
</event>
<event>
 5    1  0.9130022E-009  0.3779599E+03  0.7957747E-01  0.3460090E+00
         13   -1    0    0    0    0  0.00000000000E+00  0.00000000000E+00  0.14999999963E+04  0.15000000000E+04  0.10566000000E+00 0. -1.
        994   -1    0    0    0    0 -0.00000000000E+00 -0.00000000000E+00  0.11368683772E-12  0.17120000000E+03  0.17120000000E+03 0.  0.
         13    1    1    2    0    0 -0.15259957872E+02 -0.28709245257E+02  0.97187154183E+02  0.10248141870E+03  0.10566000000E+00 0. -1.
        994    1    1    2    0    0  0.92038643559E+01  0.25727605334E+02  0.76834459581E+01  0.17353701662E+03  0.17120000000E+03 0.  0.
        998    1    1    2    0    0  0.60560935161E+01  0.29816399222E+01  0.13951293961E+04  0.13951815647E+04  0.10000000000E+02 0. -1.
</event>
<event>
 5    1  0.9130022E-009  0.3783121E+03  0.7957747E-01  0.3458541E+00
         13   -1    0    0    0    0  0.00000000000E+00  0.00000000000E+00  0.14999999963E+04  0.15000000000E+04  0.10566000000E+00 0. -1.
        994   -1    0    0    0    0 -0.00000000000E+00 -0.00000000000E+00  0.11368683772E-12  0.17120000000E+03  0.17120000000E+03 0.  0.
         13    1    1    2    0    0  0.66395930702E+01 -0.92516235552E+01  0.10606022646E+02  0.15561992641E+02  0.10566000000E+00 0. -1.
        994    1    1    2    0    0  0.66145757333E+00  0.19021833481E+02  0.62063722156E+01  0.17236654760E+03  0.17120000000E+03 0.  0.
        998    1    1    2    0    0 -0.73010506435E+01 -0.97702099258E+01  0.14831876014E+04  0.14832714598E+04  0.10000000000E+02 0. -1.
</event>
<event>
 5    1  0.9130022E-009  0.3838368E+03  0.7957747E-01  0.3434621E+00
         13   -1    0    0    0    0  0.00000000000E+00  0.00000000000E+00  0.14999999963E+04  0.15000000000E+04  0.10566000000E+00 0. -1.
        994   -1    0    0    0    0 -0.00000000000E+00 -0.00000000000E+00  0.11368683772E-12  0.17120000000E+03  0.17120000000E+03 0.  0.
         13    1    1    2    0    0  0.16703025807E+02 -0.12414728393E+02  0.88436005179E+02  0.90851828425E+02  0.10566000000E+00 0. -1.
        994    1    1    2    0    0 -0.24845851762E+02  0.14693522198E+02  0.49641391301E+01  0.17368735884E+03  0.17120000000E+03 0.  0.
        998    1    1    2    0    0  0.81428259552E+01 -0.22787938048E+01  0.14065998520E+04  0.14066608127E+04  0.10000000000E+02 0. -1.
</event>
<event>
 5    1  0.9130022E-009  0.3818315E+03  0.7957747E-01  0.3443222E+00
         13   -1    0    0    0    0  0.00000000000E+00  0.00000000000E+00  0.14999999963E+04  0.15000000000E+04  0.10566000000E+00 0.  1.
        994   -1    0    0    0    0 -0.00000000000E+00 -0.00000000000E+00  0.11368683772E-12  0.17120000000E+03  0.17120000000E+03 0.  0.
         13    1    1    2    0    0 -0.24874293490E+02  0.10282062986E+02  0.11477487792E+03  0.11788865536E+03  0.10566000000E+00 0.  1.
        994    1    1    2    0    0 -0.79978723497E+01 -0.61643921613E+02  0.16158651765E+02  0.18285098048E+03  0.17120000000E+03 0.  0.
        998    1    1    2    0    0  0.32872165840E+02  0.51361858627E+02  0.13690664666E+04  0.13704603642E+04  0.10000000000E+02 0.  1.
</event>
<event>
 5    1  0.9130022E-009  0.3850538E+03  0.7957747E-01  0.3429444E+00
         13   -1    0    0    0    0  0.00000000000E+00  0.00000000000E+00  0.14999999963E+04  0.15000000000E+04  0.10566000000E+00 0. -1.
        994   -1    0    0    0    0 -0.00000000000E+00 -0.00000000000E+00  0.11368683772E-12  0.17120000000E+03  0.17120000000E+03 0.  0.
         13    1    1    2    0    0  0.12386151547E+02  0.99325005395E+01  0.76015211256E+02  0.77655616818E+02  0.10566000000E+00 0. -1.
        994    1    1    2    0    0 -0.17525582677E+02 -0.28986974020E+01  0.26416564370E+01  0.17213938202E+03  0.17120000000E+03 0.  0.
        998    1    1    2    0    0  0.51394311303E+01 -0.70338031375E+01  0.14213431286E+04  0.14214050012E+04  0.10000000000E+02 0. -1.
</event>
<event>
 5    1  0.9130022E-009  0.3849168E+03  0.7957747E-01  0.3430025E+00
         13   -1    0    0    0    0  0.00000000000E+00  0.00000000000E+00  0.14999999963E+04  0.15000000000E+04  0.10566000000E+00 0.  1.
        994   -1    0    0    0    0 -0.00000000000E+00 -0.00000000000E+00  0.11368683772E-12  0.17120000000E+03  0.17120000000E+03 0.  0.
         13    1    1    2    0    0 -0.16400480335E+02  0.11802863255E+01  0.76423608085E+02  0.78172551883E+02  0.10566000000E+00 0.  1.
        994    1    1    2    0    0  0.19238563552E+02  0.78927241045E+00  0.28919869669E+01  0.17230365309E+03  0.17120000000E+03 0.  0.
        998    1    1    2    0    0 -0.28380832174E+01 -0.19695587359E+01  0.14206844012E+04  0.14207237950E+04  0.10000000000E+02 0.  0.
</event>
<event>
 5    1  0.9130022E-009  0.3714323E+03  0.7957747E-01  0.3489334E+00
         13   -1    0    0    0    0  0.00000000000E+00  0.00000000000E+00  0.14999999963E+04  0.15000000000E+04  0.10566000000E+00 0. -1.
        994   -1    0    0    0    0 -0.00000000000E+00 -0.00000000000E+00  0.11368683772E-12  0.17120000000E+03  0.17120000000E+03 0.  0.
         13    1    1    2    0    0  0.22509646946E+02 -0.12110730867E+01  0.16254216483E+02  0.27791394733E+02  0.10566000000E+00 0. -1.
        994    1    1    2    0    0 -0.27489736646E+02  0.86432843007E+01  0.14621337820E+02  0.17422289030E+03  0.17120000000E+03 0.  0.
        998    1    1    2    0    0  0.49800896995E+01 -0.74322112141E+01  0.14691244420E+04  0.14691857150E+04  0.10000000000E+02 0. -1.
</event>
<event>
 5    1  0.9130022E-009  0.3732452E+03  0.7957747E-01  0.3481108E+00
         13   -1    0    0    0    0  0.00000000000E+00  0.00000000000E+00  0.14999999963E+04  0.15000000000E+04  0.10566000000E+00 0. -1.
        994   -1    0    0    0    0 -0.00000000000E+00 -0.00000000000E+00  0.11368683772E-12  0.17120000000E+03  0.17120000000E+03 0.  0.
         13    1    1    2    0    0  0.30696375614E+01  0.32831207112E+02  0.66417129720E+02  0.74152256334E+02  0.10566000000E+00 0. -1.
        994    1    1    2    0    0 -0.30740511310E+01 -0.31690542032E+02  0.11056934406E+02  0.17448620588E+03  0.17120000000E+03 0.  0.
        998    1    1    2    0    0  0.44135695782E-02 -0.11406650791E+01  0.14225259322E+04  0.14225615378E+04  0.10000000000E+02 0. -1.
</event>
<event>
 5    1  0.9130022E-009  0.3844782E+03  0.7957747E-01  0.3431888E+00
         13   -1    0    0    0    0  0.00000000000E+00  0.00000000000E+00  0.14999999963E+04  0.15000000000E+04  0.10566000000E+00 0.  1.
        994   -1    0    0    0    0 -0.00000000000E+00 -0.00000000000E+00  0.11368683772E-12  0.17120000000E+03  0.17120000000E+03 0.  0.
         13    1    1    2    0    0  0.83399078314E+01  0.81856466225E+01  0.35521758007E+02  0.37394723280E+02  0.10566000000E+00 0.  1.
        994    1    1    2    0    0 -0.44619018712E+01 -0.89010552810E+01  0.22160823532E+01  0.17150361038E+03  0.17120000000E+03 0.  0.
        998    1    1    2    0    0 -0.38780059602E+01  0.71540865854E+00  0.14622621559E+04  0.14623016663E+04  0.10000000000E+02 0.  1.
</event>
<event>
 5    1  0.9130022E-009  0.3872587E+03  0.7957747E-01  0.3420149E+00
         13   -1    0    0    0    0  0.00000000000E+00  0.00000000000E+00  0.14999999963E+04  0.15000000000E+04  0.10566000000E+00 0.  1.
        994   -1    0    0    0    0 -0.00000000000E+00 -0.00000000000E+00  0.11368683772E-12  0.17120000000E+03  0.17120000000E+03 0.  0.
         13    1    1    2    0    0 -0.15740772441E+03  0.47403772770E+02  0.37990613766E+03  0.41394805710E+03  0.10566000000E+00 0.  1.
        994    1    1    2    0    0  0.18161772570E+03 -0.52069392762E+02  0.16922527713E+03  0.30601119975E+03  0.17120000000E+03 0.  0.
        998    1    1    2    0    0 -0.24210001290E+02  0.46656199918E+01  0.95086858149E+03  0.95124074315E+03  0.10000000000E+02 0.  1.
</event>
<event>
 5    1  0.9130022E-009  0.3748769E+03  0.7957747E-01  0.3473774E+00
         13   -1    0    0    0    0  0.00000000000E+00  0.00000000000E+00  0.14999999963E+04  0.15000000000E+04  0.10566000000E+00 0.  1.
        994   -1    0    0    0    0 -0.00000000000E+00 -0.00000000000E+00  0.11368683772E-12  0.17120000000E+03  0.17120000000E+03 0.  0.
         13    1    1    2    0    0  0.32773782441E+02 -0.11976447467E+02  0.15974734161E+03  0.16351385393E+03  0.10566000000E+00 0.  1.
        994    1    1    2    0    0  0.94278352499E+02  0.34054890198E+02  0.41718919642E+02  0.20272654378E+03  0.17120000000E+03 0.  0.
        998    1    1    2    0    0 -0.12705213494E+03 -0.22078442731E+02  0.12985337350E+04  0.13049596023E+04  0.10000000000E+02 0.  1.
</event>
<event>
 5    1  0.9130022E-009  0.3807260E+03  0.7957747E-01  0.3448004E+00
         13   -1    0    0    0    0  0.00000000000E+00  0.00000000000E+00  0.14999999963E+04  0.15000000000E+04  0.10566000000E+00 0.  1.
        994   -1    0    0    0    0 -0.00000000000E+00 -0.00000000000E+00  0.11368683772E-12  0.17120000000E+03  0.17120000000E+03 0.  0.
         13    1    1    2    0    0  0.55824089216E+01  0.39702380999E+02  0.17359573091E+03  0.17816546045E+03  0.10566000000E+00 0.  1.
        994    1    1    2    0    0 -0.14200868593E+02 -0.50836531818E+02  0.13114707675E+02  0.17963143710E+03  0.17120000000E+03 0.  0.
        998    1    1    2    0    0  0.86184596716E+01  0.11134150819E+02  0.13132895577E+04  0.13134031024E+04  0.10000000000E+02 0.  1.
</event>
<event>
 5    1  0.9130022E-009  0.3790580E+03  0.7957747E-01  0.3455271E+00
         13   -1    0    0    0    0  0.00000000000E+00  0.00000000000E+00  0.14999999963E+04  0.15000000000E+04  0.10566000000E+00 0.  1.
        994   -1    0    0    0    0 -0.00000000000E+00 -0.00000000000E+00  0.11368683772E-12  0.17120000000E+03  0.17120000000E+03 0.  0.
         13    1    1    2    0    0 -0.15757831165E+02 -0.40728794851E+02  0.19256933713E+03  0.19745912170E+03  0.10566000000E+00 0.  1.
        994    1    1    2    0    0  0.60311299093E+01  0.34840900213E+02  0.88134204967E+01  0.17503536567E+03  0.17120000000E+03 0.  0.
        998    1    1    2    0    0  0.97267012555E+01  0.58878946379E+01  0.12986172386E+04  0.12987055126E+04  0.10000000000E+02 0.  1.
</event>
<event>
 5    1  0.9130022E-009  0.3849778E+03  0.7957747E-01  0.3429766E+00
         13   -1    0    0    0    0  0.00000000000E+00  0.00000000000E+00  0.14999999963E+04  0.15000000000E+04  0.10566000000E+00 0. -1.
        994   -1    0    0    0    0 -0.00000000000E+00 -0.00000000000E+00  0.11368683772E-12  0.17120000000E+03  0.17120000000E+03 0.  0.
         13    1    1    2    0    0 -0.41582383239E+01  0.16403777612E+02  0.88800952683E+02  0.90399088642E+02  0.10566000000E+00 0. -1.
        994    1    1    2    0    0  0.68211800154E+01 -0.71780763456E+01  0.19636996125E+01  0.17149737430E+03  0.17120000000E+03 0.  0.
        998    1    1    2    0    0 -0.26629416915E+01 -0.92257012666E+01  0.14092353440E+04  0.14093035371E+04  0.10000000000E+02 0. -1.
</event>
<event>
 5    1  0.9130022E-009  0.3773649E+03  0.7957747E-01  0.3462713E+00
         13   -1    0    0    0    0  0.00000000000E+00  0.00000000000E+00  0.14999999963E+04  0.15000000000E+04  0.10566000000E+00 0. -1.
        994   -1    0    0    0    0 -0.00000000000E+00 -0.00000000000E+00  0.11368683772E-12  0.17120000000E+03  0.17120000000E+03 0.  0.
         13    1    1    2    0    0 -0.39216120874E+02  0.17248121070E+01  0.13423410507E+03  0.13985594461E+03  0.10566000000E+00 0. -1.
        994    1    1    2    0    0  0.29776456539E+02 -0.31368493575E+01  0.84983815838E+01  0.17400614839E+03  0.17120000000E+03 0.  0.
        998    1    1    2    0    0  0.94396643356E+01  0.14120372505E+01  0.13572675096E+04  0.13573379070E+04  0.10000000000E+02 0. -1.
</event>
<event>
 5    1  0.9130022E-009  0.3721309E+03  0.7957747E-01  0.3486155E+00
         13   -1    0    0    0    0  0.00000000000E+00  0.00000000000E+00  0.14999999963E+04  0.15000000000E+04  0.10566000000E+00 0.  1.
        994   -1    0    0    0    0 -0.00000000000E+00 -0.00000000000E+00  0.11368683772E-12  0.17120000000E+03  0.17120000000E+03 0.  0.
         13    1    1    2    0    0  0.50254834057E+01 -0.14546992895E+02  0.43744168222E+01  0.16000536626E+02  0.10566000000E+00 0.  1.
        994    1    1    2    0    0  0.80436802632E+01  0.11919569773E+02  0.12798663693E+02  0.17227890970E+03  0.17120000000E+03 0.  0.
        998    1    1    2    0    0 -0.13069163669E+02  0.26274231211E+01  0.14828269158E+04  0.14829205537E+04  0.10000000000E+02 0.  1.
</event>
<event>
 5    1  0.9130022E-009  0.3769231E+03  0.7957747E-01  0.3464666E+00
         13   -1    0    0    0    0  0.00000000000E+00  0.00000000000E+00  0.14999999963E+04  0.15000000000E+04  0.10566000000E+00 0.  1.
        994   -1    0    0    0    0 -0.00000000000E+00 -0.00000000000E+00  0.11368683772E-12  0.17120000000E+03  0.17120000000E+03 0.  0.
         13    1    1    2    0    0 -0.17003367075E+02 -0.48749019461E+01  0.25433806183E+02  0.30980135924E+02  0.10566000000E+00 0.  1.
        994    1    1    2    0    0  0.75412597786E+01 -0.16267970622E+00  0.58866563646E+01  0.17146716825E+03  0.17120000000E+03 0.  0.
        998    1    1    2    0    0  0.94621072960E+01  0.50375816523E+01  0.14686795337E+04  0.14687526958E+04  0.10000000000E+02 0.  1.
</event>
<event>
 5    1  0.9130022E-009  0.3734279E+03  0.7957747E-01  0.3480284E+00
         13   -1    0    0    0    0  0.00000000000E+00  0.00000000000E+00  0.14999999963E+04  0.15000000000E+04  0.10566000000E+00 0. -1.
        994   -1    0    0    0    0 -0.00000000000E+00 -0.00000000000E+00  0.11368683772E-12  0.17120000000E+03  0.17120000000E+03 0.  0.
         13    1    1    2    0    0 -0.74089194291E+02 -0.36708829535E+02  0.46015213197E+03  0.46752191670E+03  0.10566000000E+00 0. -1.
        994    1    1    2    0    0  0.50005355428E+02  0.43901856515E+01  0.16148632224E+02  0.17913689632E+03  0.17120000000E+03 0.  0.
        998    1    1    2    0    0  0.24083838863E+02  0.32318643884E+02  0.10236992321E+04  0.10245411870E+04  0.10000000000E+02 0. -1.
</event>
<event>
 5    1  0.9130022E-009  0.3744489E+03  0.7957747E-01  0.3475691E+00
         13   -1    0    0    0    0  0.00000000000E+00  0.00000000000E+00  0.14999999963E+04  0.15000000000E+04  0.10566000000E+00 0.  1.
        994   -1    0    0    0    0 -0.00000000000E+00 -0.00000000000E+00  0.11368683772E-12  0.17120000000E+03  0.17120000000E+03 0.  0.
         13    1    1    2    0    0 -0.48059658878E+02  0.17815839042E+02  0.16948111643E+03  0.17706212165E+03  0.10566000000E+00 0.  1.
        994    1    1    2    0    0  0.42329583260E+02 -0.23594955289E+02  0.15002369579E+02  0.17855818835E+03  0.17120000000E+03 0.  0.
        998    1    1    2    0    0  0.57300756176E+01  0.57791162476E+01  0.13155165103E+04  0.13155796900E+04  0.10000000000E+02 0.  1.
</event>
<event>
 5    1  0.9130022E-009  0.3823645E+03  0.7957747E-01  0.3440927E+00
         13   -1    0    0    0    0  0.00000000000E+00  0.00000000000E+00  0.14999999963E+04  0.15000000000E+04  0.10566000000E+00 0.  1.
        994   -1    0    0    0    0 -0.00000000000E+00 -0.00000000000E+00  0.11368683772E-12  0.17120000000E+03  0.17120000000E+03 0.  0.
         13    1    1    2    0    0 -0.12363007824E+02  0.30659134217E+02  0.16015315360E+03  0.16352941706E+03  0.10566000000E+00 0.  1.
        994    1    1    2    0    0  0.18974100096E+02 -0.33931778257E+02  0.79738192456E+01  0.17573959100E+03  0.17120000000E+03 0.  0.
        998    1    1    2    0    0 -0.66110922720E+01  0.32726440405E+01  0.13318730234E+04  0.13319309919E+04  0.10000000000E+02 0.  1.
</event>
<event>
 5    1  0.9130022E-009  0.3850483E+03  0.7957747E-01  0.3429468E+00
         13   -1    0    0    0    0  0.00000000000E+00  0.00000000000E+00  0.14999999963E+04  0.15000000000E+04  0.10566000000E+00 0.  1.
        994   -1    0    0    0    0 -0.00000000000E+00 -0.00000000000E+00  0.11368683772E-12  0.17120000000E+03  0.17120000000E+03 0.  0.
         13    1    1    2    0    0 -0.13046268203E+02 -0.11245136488E+02  0.86827455498E+02  0.88519356081E+02  0.10566000000E+00 0.  1.
        994    1    1    2    0    0  0.11136038459E+02  0.17338564877E+02  0.30036894959E+01  0.17246187792E+03  0.17120000000E+03 0.  0.
        998    1    1    2    0    0  0.19102297442E+01 -0.60934283882E+01  0.14101688513E+04  0.14102187660E+04  0.10000000000E+02 0.  1.
</event>
<event>
 5    1  0.9130022E-009  0.3755801E+03  0.7957747E-01  0.3470632E+00
         13   -1    0    0    0    0  0.00000000000E+00  0.00000000000E+00  0.14999999963E+04  0.15000000000E+04  0.10566000000E+00 0. -1.
        994   -1    0    0    0    0 -0.00000000000E+00 -0.00000000000E+00  0.11368683772E-12  0.17120000000E+03  0.17120000000E+03 0.  0.
         13    1    1    2    0    0  0.59979504642E+02 -0.31485388105E+02  0.27720506703E+03  0.28536210503E+03  0.10566000000E+00 0. -1.
        994    1    1    2    0    0 -0.76459584094E+02  0.16003404485E+02  0.27372853918E+02  0.19016016956E+03  0.17120000000E+03 0.  0.
        998    1    1    2    0    0  0.16480079451E+02  0.15481983620E+02  0.11954220753E+04  0.11956777254E+04  0.10000000000E+02 0. -1.
</event>
<event>
 5    1  0.9130022E-009  0.3721128E+03  0.7957747E-01  0.3486237E+00
         13   -1    0    0    0    0  0.00000000000E+00  0.00000000000E+00  0.14999999963E+04  0.15000000000E+04  0.10566000000E+00 0.  1.
        994   -1    0    0    0    0 -0.00000000000E+00 -0.00000000000E+00  0.11368683772E-12  0.17120000000E+03  0.17120000000E+03 0.  0.
         13    1    1    2    0    0  0.24992325867E+02  0.59770870178E+02  0.20573872347E+03  0.21569795264E+03  0.10566000000E+00 0.  1.
        994    1    1    2    0    0  0.13111421321E+01 -0.84201433882E+02  0.32919315816E+02  0.19360971545E+03  0.17120000000E+03 0.  0.
        998    1    1    2    0    0 -0.26303467999E+02  0.24430563704E+02  0.12613419570E+04  0.12618923319E+04  0.10000000000E+02 0.  1.
</event>
<event>
 5    1  0.9130022E-009  0.3934197E+03  0.7957747E-01  0.3394730E+00
         13   -1    0    0    0    0  0.00000000000E+00  0.00000000000E+00  0.14999999963E+04  0.15000000000E+04  0.10566000000E+00 0.  1.
        994   -1    0    0    0    0 -0.00000000000E+00 -0.00000000000E+00  0.11368683772E-12  0.17120000000E+03  0.17120000000E+03 0.  0.
         13    1    1    2    0    0  0.16170902274E+03 -0.34465014995E+02  0.38972401212E+03  0.42334673978E+03  0.10566000000E+00 0.  1.
        994    1    1    2    0    0 -0.15967462910E+03  0.37233169884E+02  0.13554401209E+03  0.27306394000E+03  0.17120000000E+03 0.  0.
        998    1    1    2    0    0 -0.20343936467E+01 -0.27681548886E+01  0.97473197207E+03  0.97478932022E+03  0.10000000000E+02 0.  0.
</event>
<event>
 5    1  0.9130022E-009  0.3824160E+03  0.7957747E-01  0.3440706E+00
         13   -1    0    0    0    0  0.00000000000E+00  0.00000000000E+00  0.14999999963E+04  0.15000000000E+04  0.10566000000E+00 0.  1.
        994   -1    0    0    0    0 -0.00000000000E+00 -0.00000000000E+00  0.11368683772E-12  0.17120000000E+03  0.17120000000E+03 0.  0.
         13    1    1    2    0    0 -0.26749821943E+02  0.70251723046E+01  0.15335227449E+03  0.15582630482E+03  0.10566000000E+00 0.  1.
        994    1    1    2    0    0  0.49423626730E+00  0.18429349831E+02  0.40465174026E+01  0.17223733483E+03  0.17120000000E+03 0.  0.
        998    1    1    2    0    0  0.26255585675E+02 -0.25454522135E+02  0.13426012044E+04  0.13431363604E+04  0.10000000000E+02 0.  1.
</event>
<event>
 5    1  0.9130022E-009  0.3787436E+03  0.7957747E-01  0.3456647E+00
         13   -1    0    0    0    0  0.00000000000E+00  0.00000000000E+00  0.14999999963E+04  0.15000000000E+04  0.10566000000E+00 0.  1.
        994   -1    0    0    0    0 -0.00000000000E+00 -0.00000000000E+00  0.11368683772E-12  0.17120000000E+03  0.17120000000E+03 0.  0.
         13    1    1    2    0    0  0.13666666224E+02  0.52987677368E+01  0.20879771814E+02  0.25511384522E+02  0.10566000000E+00 0.  1.
        994    1    1    2    0    0 -0.73430676581E+01  0.90753587272E+01  0.52263157034E+01  0.17167713055E+03  0.17120000000E+03 0.  0.
        998    1    1    2    0    0 -0.63235985657E+01 -0.14374126464E+02  0.14738939088E+04  0.14740114849E+04  0.10000000000E+02 0.  1.
</event>
<event>
 5    1  0.9130022E-009  0.3733678E+03  0.7957747E-01  0.3480555E+00
         13   -1    0    0    0    0  0.00000000000E+00  0.00000000000E+00  0.14999999963E+04  0.15000000000E+04  0.10566000000E+00 0.  1.
        994   -1    0    0    0    0 -0.00000000000E+00 -0.00000000000E+00  0.11368683772E-12  0.17120000000E+03  0.17120000000E+03 0.  0.
         13    1    1    2    0    0  0.17972867645E+02  0.63512198012E+02  0.34856981930E+03  0.35476436315E+03  0.10566000000E+00 0.  1.
        994    1    1    2    0    0 -0.21555910463E+02 -0.89736353468E+01  0.93849870519E+01  0.17303959486E+03  0.17120000000E+03 0.  0.
        998    1    1    2    0    0  0.35830428177E+01 -0.54538562665E+02  0.11420451899E+04  0.11433960420E+04  0.10000000000E+02 0.  1.
</event>
<event>
 5    1  0.9130022E-009  0.3778821E+03  0.7957747E-01  0.3460432E+00
         13   -1    0    0    0    0  0.00000000000E+00  0.00000000000E+00  0.14999999963E+04  0.15000000000E+04  0.10566000000E+00 0. -1.
        994   -1    0    0    0    0 -0.00000000000E+00 -0.00000000000E+00  0.11368683772E-12  0.17120000000E+03  0.17120000000E+03 0.  0.
         13    1    1    2    0    0  0.23917514161E+02 -0.50697092675E+01  0.54105153664E+02  0.59372790508E+02  0.10566000000E+00 0. -1.
        994    1    1    2    0    0 -0.21543465623E+02  0.74376036797E+01  0.69567280772E+01  0.17285044092E+03  0.17120000000E+03 0.  0.
        998    1    1    2    0    0 -0.23740485376E+01 -0.23678944122E+01  0.14389381145E+04  0.14389767686E+04  0.10000000000E+02 0.  0.
</event>
<event>
 5    1  0.9130022E-009  0.3793683E+03  0.7957747E-01  0.3453914E+00
         13   -1    0    0    0    0  0.00000000000E+00  0.00000000000E+00  0.14999999963E+04  0.15000000000E+04  0.10566000000E+00 0. -1.
        994   -1    0    0    0    0 -0.00000000000E+00 -0.00000000000E+00  0.11368683772E-12  0.17120000000E+03  0.17120000000E+03 0.  0.
         13    1    1    2    0    0 -0.12999900915E+02 -0.36269807759E+02  0.18868088566E+03  0.19257461971E+03  0.10566000000E+00 0. -1.
        994    1    1    2    0    0  0.27359716736E+02 -0.48787474777E+01  0.70440146486E+01  0.17358402697E+03  0.17120000000E+03 0.  0.
        998    1    1    2    0    0 -0.14359815822E+02  0.41148555237E+02  0.13042750960E+04  0.13050413533E+04  0.10000000000E+02 0.  1.
</event>
<event>
 5    1  0.9130022E-009  0.3737893E+03  0.7957747E-01  0.3478655E+00
         13   -1    0    0    0    0  0.00000000000E+00  0.00000000000E+00  0.14999999963E+04  0.15000000000E+04  0.10566000000E+00 0. -1.
        994   -1    0    0    0    0 -0.00000000000E+00 -0.00000000000E+00  0.11368683772E-12  0.17120000000E+03  0.17120000000E+03 0.  0.
         13    1    1    2    0    0 -0.43267386458E+02 -0.85495248214E+01  0.12010007973E+03  0.12794217999E+03  0.10566000000E+00 0. -1.
        994    1    1    2    0    0  0.44505453486E+02  0.10499530618E+02  0.14472295994E+02  0.17779162771E+03  0.17120000000E+03 0.  0.
        998    1    1    2    0    0 -0.12380670285E+01 -0.19500057967E+01  0.13654276206E+04  0.13654661923E+04  0.10000000000E+02 0. -1.
</event>
<event>
 5    1  0.9130022E-009  0.3776116E+03  0.7957747E-01  0.3461625E+00
         13   -1    0    0    0    0  0.00000000000E+00  0.00000000000E+00  0.14999999963E+04  0.15000000000E+04  0.10566000000E+00 0. -1.
        994   -1    0    0    0    0 -0.00000000000E+00 -0.00000000000E+00  0.11368683772E-12  0.17120000000E+03  0.17120000000E+03 0.  0.
         13    1    1    2    0    0 -0.33470018726E+02  0.11942737199E+02  0.11159706367E+03  0.11711868727E+03  0.10566000000E+00 0. -1.
        994    1    1    2    0    0  0.28826886433E+02 -0.81702728791E+01  0.83746008540E+01  0.17400378352E+03  0.17120000000E+03 0.  0.
        998    1    1    2    0    0  0.46431322932E+01 -0.37724643200E+01  0.13800283318E+04  0.13800775292E+04  0.10000000000E+02 0. -1.
</event>
<event>
 5    1  0.9130022E-009  0.3834670E+03  0.7957747E-01  0.3436200E+00
         13   -1    0    0    0    0  0.00000000000E+00  0.00000000000E+00  0.14999999963E+04  0.15000000000E+04  0.10566000000E+00 0. -1.
        994   -1    0    0    0    0 -0.00000000000E+00 -0.00000000000E+00  0.11368683772E-12  0.17120000000E+03  0.17120000000E+03 0.  0.
         13    1    1    2    0    0  0.53573091506E+01  0.12569897219E+02  0.37997482468E+02  0.40379733969E+02  0.10566000000E+00 0. -1.
        994    1    1    2    0    0 -0.99383552501E+01 -0.79185157639E+01  0.29270183753E+01  0.17169589754E+03  0.17120000000E+03 0.  0.
        998    1    1    2    0    0  0.45810460995E+01 -0.46513814554E+01  0.14590754954E+04  0.14591243685E+04  0.10000000000E+02 0. -1.
</event>
<event>
 5    1  0.9130022E-009  0.4181613E+03  0.7957747E-01  0.3300157E+00
         13   -1    0    0    0    0  0.00000000000E+00  0.00000000000E+00  0.14999999963E+04  0.15000000000E+04  0.10566000000E+00 0.  1.
        994   -1    0    0    0    0 -0.00000000000E+00 -0.00000000000E+00  0.11368683772E-12  0.17120000000E+03  0.17120000000E+03 0.  0.
         13    1    1    2    0    0  0.88193245329E+02 -0.33239958136E+02  0.13747656589E+03  0.16668161468E+03  0.10566000000E+00 0.  1.
        994    1    1    2    0    0  0.19054671631E+02 -0.36639347965E+02  0.46364406154E+02  0.18211156056E+03  0.17120000000E+03 0.  0.
        998    1    1    2    0    0 -0.10724791696E+03  0.69879306102E+02  0.13161590242E+04  0.13224068248E+04  0.10000000000E+02 0.  1.
</event>
<event>
 5    1  0.9130022E-009  0.3768745E+03  0.7957747E-01  0.3464882E+00
         13   -1    0    0    0    0  0.00000000000E+00  0.00000000000E+00  0.14999999963E+04  0.15000000000E+04  0.10566000000E+00 0. -1.
        994   -1    0    0    0    0 -0.00000000000E+00 -0.00000000000E+00  0.11368683772E-12  0.17120000000E+03  0.17120000000E+03 0.  0.
         13    1    1    2    0    0  0.47375955410E+02 -0.37163395815E+02  0.27835173796E+03  0.28478992315E+03  0.10566000000E+00 0. -1.
        994    1    1    2    0    0 -0.38834352798E+02  0.32598518647E+02  0.14452730533E+02  0.17913428425E+03  0.17120000000E+03 0.  0.
        998    1    1    2    0    0 -0.85416026117E+01  0.45648771685E+01  0.12071955278E+04  0.12072757926E+04  0.10000000000E+02 0. -1.
</event>
<event>
 5    1  0.9130022E-009  0.3812472E+03  0.7957747E-01  0.3445746E+00
         13   -1    0    0    0    0  0.00000000000E+00  0.00000000000E+00  0.14999999963E+04  0.15000000000E+04  0.10566000000E+00 0.  1.
        994   -1    0    0    0    0 -0.00000000000E+00 -0.00000000000E+00  0.11368683772E-12  0.17120000000E+03  0.17120000000E+03 0.  0.
         13    1    1    2    0    0  0.13517418329E+02 -0.32163447553E+02  0.11818065585E+03  0.12322291401E+03  0.10566000000E+00 0.  1.
        994    1    1    2    0    0  0.10107046502E+02  0.10025291615E+03  0.38078460785E+02  0.20226766613E+03  0.17120000000E+03 0.  0.
        998    1    1    2    0    0 -0.23624464831E+02 -0.68089468594E+02  0.13437408796E+04  0.13457094199E+04  0.10000000000E+02 0.  1.
</event>
<event>
 5    1  0.9130022E-009  0.3786555E+03  0.7957747E-01  0.3457034E+00
         13   -1    0    0    0    0  0.00000000000E+00  0.00000000000E+00  0.14999999963E+04  0.15000000000E+04  0.10566000000E+00 0.  1.
        994   -1    0    0    0    0 -0.00000000000E+00 -0.00000000000E+00  0.11368683772E-12  0.17120000000E+03  0.17120000000E+03 0.  0.
         13    1    1    2    0    0 -0.78481441647E+00 -0.25506985992E+02  0.74636687650E+02  0.78878822098E+02  0.10566000000E+00 0.  1.
        994    1    1    2    0    0 -0.55643596828E+01 -0.13054387300E+02  0.54898885629E+01  0.17187483237E+03  0.17120000000E+03 0.  0.
        998    1    1    2    0    0  0.63491740993E+01  0.38561373293E+02  0.14198734201E+04  0.14204463455E+04  0.10000000000E+02 0.  1.
</event>
<event>
 5    1  0.9130022E-009  0.3853169E+03  0.7957747E-01  0.3428329E+00
         13   -1    0    0    0    0  0.00000000000E+00  0.00000000000E+00  0.14999999963E+04  0.15000000000E+04  0.10566000000E+00 0.  1.
        994   -1    0    0    0    0 -0.00000000000E+00 -0.00000000000E+00  0.11368683772E-12  0.17120000000E+03  0.17120000000E+03 0.  0.
         13    1    1    2    0    0 -0.93641799336E+01  0.98509275343E+01  0.58160576077E+02  0.59727651994E+02  0.10566000000E+00 0.  1.
        994    1    1    2    0    0  0.19794033484E+00 -0.30360732058E+02  0.45071807350E+01  0.17392977867E+03  0.17120000000E+03 0.  0.
        998    1    1    2    0    0  0.91662395988E+01  0.20509804523E+02  0.14373322395E+04  0.14375425693E+04  0.10000000000E+02 0.  1.
</event>
<event>
 5    1  0.9130022E-009  0.3701207E+03  0.7957747E-01  0.3495337E+00
         13   -1    0    0    0    0  0.00000000000E+00  0.00000000000E+00  0.14999999963E+04  0.15000000000E+04  0.10566000000E+00 0. -1.
        994   -1    0    0    0    0 -0.00000000000E+00 -0.00000000000E+00  0.11368683772E-12  0.17120000000E+03  0.17120000000E+03 0.  0.
         13    1    1    2    0    0  0.18075857623E+02  0.60758439880E+02  0.30555985456E+03  0.31206595542E+03  0.10566000000E+00 0. -1.
        994    1    1    2    0    0 -0.66620957291E+00  0.13918982548E+02  0.98774234107E+01  0.17204995032E+03  0.17120000000E+03 0.  0.
        998    1    1    2    0    0 -0.17409648050E+02 -0.74677422428E+02  0.11845627183E+04  0.11870840943E+04  0.10000000000E+02 0. -1.
</event>
<event>
 5    1  0.9130022E-009  0.3701549E+03  0.7957747E-01  0.3495179E+00
         13   -1    0    0    0    0  0.00000000000E+00  0.00000000000E+00  0.14999999963E+04  0.15000000000E+04  0.10566000000E+00 0. -1.
        994   -1    0    0    0    0 -0.00000000000E+00 -0.00000000000E+00  0.11368683772E-12  0.17120000000E+03  0.17120000000E+03 0.  0.
         13    1    1    2    0    0 -0.11799689000E+02  0.33084030357E+02  0.57127353213E+02  0.67062145614E+02  0.10566000000E+00 0. -1.
        994    1    1    2    0    0  0.28629378504E+02 -0.51831581935E+02  0.21404077158E+02  0.18241087884E+03  0.17120000000E+03 0.  0.
        998    1    1    2    0    0 -0.16829689504E+02  0.18747551578E+02  0.14214685659E+04  0.14217269755E+04  0.10000000000E+02 0. -1.
</event>
<event>
 5    1  0.9130022E-009  0.3778375E+03  0.7957747E-01  0.3460629E+00
         13   -1    0    0    0    0  0.00000000000E+00  0.00000000000E+00  0.14999999963E+04  0.15000000000E+04  0.10566000000E+00 0. -1.
        994   -1    0    0    0    0 -0.00000000000E+00 -0.00000000000E+00  0.11368683772E-12  0.17120000000E+03  0.17120000000E+03 0.  0.
         13    1    1    2    0    0  0.82689317297E+01 -0.80896833748E+02  0.43967801532E+03  0.44713470147E+03  0.10566000000E+00 0. -1.
        994    1    1    2    0    0 -0.55031851371E+01  0.81914451426E+02  0.28269996085E+02  0.19196066023E+03  0.17120000000E+03 0.  0.
        998    1    1    2    0    0 -0.27657465926E+01 -0.10176176784E+01  0.10320519849E+04  0.10321046383E+04  0.10000000000E+02 0. -1.
</event>
<event>
 5    1  0.9130022E-009  0.3706730E+03  0.7957747E-01  0.3492804E+00
         13   -1    0    0    0    0  0.00000000000E+00  0.00000000000E+00  0.14999999963E+04  0.15000000000E+04  0.10566000000E+00 0.  1.
        994   -1    0    0    0    0 -0.00000000000E+00 -0.00000000000E+00  0.11368683772E-12  0.17120000000E+03  0.17120000000E+03 0.  0.
         13    1    1    2    0    0 -0.95689980152E+02  0.55057901941E+02  0.27968450071E+03  0.30068484493E+03  0.10566000000E+00 0.  1.
        994    1    1    2    0    0  0.17575107084E+03 -0.49271554070E+02  0.13916586121E+03  0.28634367789E+03  0.17120000000E+03 0.  0.
        998    1    1    2    0    0 -0.80061090685E+02 -0.57863478710E+01  0.10811496344E+04  0.10841714772E+04  0.10000000000E+02 0.  1.
</event>
<event>
 5    1  0.9130022E-009  0.3927481E+03  0.7957747E-01  0.3397462E+00
         13   -1    0    0    0    0  0.00000000000E+00  0.00000000000E+00  0.14999999963E+04  0.15000000000E+04  0.10566000000E+00 0.  1.
        994   -1    0    0    0    0 -0.00000000000E+00 -0.00000000000E+00  0.11368683772E-12  0.17120000000E+03  0.17120000000E+03 0.  0.
         13    1    1    2    0    0 -0.98134496485E+02  0.50527454356E+02  0.46338661646E+03  0.47635130998E+03  0.10566000000E+00 0.  1.
        994    1    1    2    0    0 -0.31486128813E+01  0.46534926280E+02  0.31831937703E+02  0.18027236445E+03  0.17120000000E+03 0.  0.
        998    1    1    2    0    0  0.10128310937E+03 -0.97062380637E+02  0.10047814421E+04  0.10145763256E+04  0.10000000000E+02 0.  1.
</event>
<event>
 5    1  0.9130022E-009  0.3748281E+03  0.7957747E-01  0.3473992E+00
         13   -1    0    0    0    0  0.00000000000E+00  0.00000000000E+00  0.14999999963E+04  0.15000000000E+04  0.10566000000E+00 0. -1.
        994   -1    0    0    0    0 -0.00000000000E+00 -0.00000000000E+00  0.11368683772E-12  0.17120000000E+03  0.17120000000E+03 0.  0.
         13    1    1    2    0    0 -0.63772441071E+01 -0.13194127479E+02  0.16975412229E+01  0.14752865910E+02  0.10566000000E+00 0. -1.
        994    1    1    2    0    0  0.18043846191E+02  0.10089684450E+02  0.15036128711E+02  0.17309797019E+03  0.17120000000E+03 0.  0.
        998    1    1    2    0    0 -0.11666602084E+02  0.31044430285E+01  0.14832663263E+04  0.14833491639E+04  0.10000000000E+02 0. -1.
</event>
<event>
 5    1  0.1004878E-008  0.3857951E+03  0.7957747E-01  0.3426307E+00
         13   -1    0    0    0    0  0.00000000000E+00  0.00000000000E+00  0.14999999963E+04  0.15000000000E+04  0.10566000000E+00 0. -1.
        994   -1    0    0    0    0 -0.00000000000E+00 -0.00000000000E+00  0.11368683772E-12  0.17120000000E+03  0.17120000000E+03 0.  0.
         13    1    1    2    0    0  0.10573444646E+02  0.18588320886E+01  0.45742230948E+02  0.46985272635E+02  0.10566000000E+00 0. -1.
        994    1    1    2    0    0 -0.11485889052E+02 -0.25121321456E+01  0.16894621878E+01  0.17161156936E+03  0.17120000000E+03 0.  0.
        998    1    1    2    0    0  0.91244440567E+00  0.65330005700E+00  0.14525683031E+04  0.14526031580E+04  0.10000000000E+02 0. -1.
</event>
<event>
 5    1  0.9130022E-009  0.3774992E+03  0.7957747E-01  0.3462120E+00
         13   -1    0    0    0    0  0.00000000000E+00  0.00000000000E+00  0.14999999963E+04  0.15000000000E+04  0.10566000000E+00 0. -1.
        994   -1    0    0    0    0 -0.00000000000E+00 -0.00000000000E+00  0.11368683772E-12  0.17120000000E+03  0.17120000000E+03 0.  0.
         13    1    1    2    0    0 -0.12163005113E+03 -0.42481711456E+02  0.48407151102E+03  0.50092295225E+03  0.10566000000E+00 0. -1.
        994    1    1    2    0    0  0.19349456956E+03  0.31287126985E+02  0.14827449206E+03  0.29952261644E+03  0.17120000000E+03 0.  0.
        998    1    1    2    0    0 -0.71864518430E+02  0.11194584472E+02  0.86765399319E+03  0.87075443130E+03  0.10000000000E+02 0. -1.
</event>
<event>
 5    1  0.9130022E-009  0.3697268E+03  0.7957747E-01  0.3497147E+00
         13   -1    0    0    0    0  0.00000000000E+00  0.00000000000E+00  0.14999999963E+04  0.15000000000E+04  0.10566000000E+00 0.  1.
        994   -1    0    0    0    0 -0.00000000000E+00 -0.00000000000E+00  0.11368683772E-12  0.17120000000E+03  0.17120000000E+03 0.  0.
         13    1    1    2    0    0 -0.61644289134E+02  0.49362695235E+02  0.34933776954E+03  0.35815301542E+03  0.10566000000E+00 0.  1.
        994    1    1    2    0    0  0.35853268660E+02  0.15451880712E+02  0.16136825782E+02  0.17633506355E+03  0.17120000000E+03 0.  0.
        998    1    1    2    0    0  0.25791020474E+02 -0.64814575947E+02  0.11345254010E+04  0.11367119210E+04  0.10000000000E+02 0.  1.
</event>
<event>
 5    1  0.9130022E-009  0.3844165E+03  0.7957747E-01  0.3432151E+00
         13   -1    0    0    0    0  0.00000000000E+00  0.00000000000E+00  0.14999999963E+04  0.15000000000E+04  0.10566000000E+00 0. -1.
        994   -1    0    0    0    0 -0.00000000000E+00 -0.00000000000E+00  0.11368683772E-12  0.17120000000E+03  0.17120000000E+03 0.  0.
         13    1    1    2    0    0 -0.82776681336E+01 -0.19988576092E+02  0.12288238699E+03  0.12477241346E+03  0.10566000000E+00 0. -1.
        994    1    1    2    0    0  0.44115781000E+01  0.11319617336E+02  0.24065541351E+01  0.17164739223E+03  0.17120000000E+03 0.  0.
        998    1    1    2    0    0  0.38660900336E+01  0.86689587552E+01  0.13747110552E+04  0.13747801943E+04  0.10000000000E+02 0. -1.
</event>
<event>
 5    1  0.9130022E-009  0.3775191E+03  0.7957747E-01  0.3462032E+00
         13   -1    0    0    0    0  0.00000000000E+00  0.00000000000E+00  0.14999999963E+04  0.15000000000E+04  0.10566000000E+00 0. -1.
        994   -1    0    0    0    0 -0.00000000000E+00 -0.00000000000E+00  0.11368683772E-12  0.17120000000E+03  0.17120000000E+03 0.  0.
         13    1    1    2    0    0 -0.27785100838E+01  0.46725578920E+02  0.25785654081E+03  0.26207061386E+03  0.10566000000E+00 0. -1.
        994    1    1    2    0    0 -0.22090496456E+02  0.22767404218E+01  0.70547915334E+01  0.17277842361E+03  0.17120000000E+03 0.  0.
        998    1    1    2    0    0  0.24869006540E+02 -0.49002319342E+02  0.12350886639E+04  0.12363509625E+04  0.10000000000E+02 0. -1.
</event>
<event>
 5    1  0.9130022E-009  0.2230961E+03  0.7957747E-01  0.4665051E+00
         13   -1    0    0    0    0  0.00000000000E+00  0.00000000000E+00  0.14999999963E+04  0.15000000000E+04  0.10566000000E+00 0. -1.
        994   -1    0    0    0    0 -0.00000000000E+00 -0.00000000000E+00  0.11368683772E-12  0.17120000000E+03  0.17120000000E+03 0.  0.
         13    1    1    2    0    0  0.64990467112E+02  0.12104371657E+03  0.11149624988E+03  0.17693718388E+03  0.10566000000E+00 0. -1.
        994    1    1    2    0    0 -0.18056366503E+02 -0.28361431595E+02  0.99117069831E+02  0.20065900604E+03  0.17120000000E+03 0.  0.
        998    1    1    2    0    0 -0.46934100609E+02 -0.92682284978E+02  0.12893866766E+04  0.12936038101E+04  0.10000000000E+02 0. -1.
</event>
<event>
 5    1  0.9130022E-009  0.3790374E+03  0.7957747E-01  0.3455361E+00
         13   -1    0    0    0    0  0.00000000000E+00  0.00000000000E+00  0.14999999963E+04  0.15000000000E+04  0.10566000000E+00 0. -1.
        994   -1    0    0    0    0 -0.00000000000E+00 -0.00000000000E+00  0.11368683772E-12  0.17120000000E+03  0.17120000000E+03 0.  0.
         13    1    1    2    0    0  0.45096861442E+02 -0.13301307463E+02  0.27956161948E+03  0.28348785149E+03  0.10566000000E+00 0. -1.
        994    1    1    2    0    0 -0.72004913459E+01  0.52265568557E+01  0.48853803862E+01  0.17150064406E+03  0.17120000000E+03 0.  0.
        998    1    1    2    0    0 -0.37896370096E+02  0.80747506073E+01  0.12155529964E+04  0.12162115044E+04  0.10000000000E+02 0. -1.
</event>
<event>
 5    1  0.9130022E-009  0.3826981E+03  0.7957747E-01  0.3439494E+00
         13   -1    0    0    0    0  0.00000000000E+00  0.00000000000E+00  0.14999999963E+04  0.15000000000E+04  0.10566000000E+00 0. -1.
        994   -1    0    0    0    0 -0.00000000000E+00 -0.00000000000E+00  0.11368683772E-12  0.17120000000E+03  0.17120000000E+03 0.  0.
         13    1    1    2    0    0  0.47440786638E+01  0.10203797838E+02  0.21776537911E+02  0.24512293652E+02  0.10566000000E+00 0. -1.
        994    1    1    2    0    0 -0.79057384546E+01 -0.46660201003E+01  0.30566196522E+01  0.17147319140E+03  0.17120000000E+03 0.  0.
        998    1    1    2    0    0  0.31616597908E+01 -0.55377777379E+01  0.14751668387E+04  0.14752145150E+04  0.10000000000E+02 0. -1.
</event>
<event>
 5    1  0.9130022E-009  0.3832705E+03  0.7957747E-01  0.3437040E+00
         13   -1    0    0    0    0  0.00000000000E+00  0.00000000000E+00  0.14999999963E+04  0.15000000000E+04  0.10566000000E+00 0. -1.
        994   -1    0    0    0    0 -0.00000000000E+00 -0.00000000000E+00  0.11368683772E-12  0.17120000000E+03  0.17120000000E+03 0.  0.
         13    1    1    2    0    0 -0.12650082745E+02  0.10714758544E+02  0.56157292498E+02  0.58553251906E+02  0.10566000000E+00 0. -1.
        994    1    1    2    0    0 -0.31533607705E+00 -0.75472395940E+01  0.26799707240E+01  0.17138752144E+03  0.17120000000E+03 0.  0.
        998    1    1    2    0    0  0.12965418822E+02 -0.31675189495E+01  0.14411627331E+04  0.14412592267E+04  0.10000000000E+02 0. -1.
</event>
<event>
 5    1  0.9130022E-009  0.3844913E+03  0.7957747E-01  0.3431832E+00
         13   -1    0    0    0    0  0.00000000000E+00  0.00000000000E+00  0.14999999963E+04  0.15000000000E+04  0.10566000000E+00 0. -1.
        994   -1    0    0    0    0 -0.00000000000E+00 -0.00000000000E+00  0.11368683772E-12  0.17120000000E+03  0.17120000000E+03 0.  0.
         13    1    1    2    0    0 -0.14291851217E+01  0.14888819992E+02  0.64580676400E+02  0.66290228988E+02  0.10566000000E+00 0. -1.
        994    1    1    2    0    0 -0.63601460027E+01  0.41484167740E+01  0.20728642231E+01  0.17138085536E+03  0.17120000000E+03 0.  0.
        998    1    1    2    0    0  0.77893311244E+01 -0.19037236766E+02  0.14333464557E+04  0.14335289156E+04  0.10000000000E+02 0. -1.
</event>
<event>
 5    1  0.9130022E-009  0.3792600E+03  0.7957747E-01  0.3454387E+00
         13   -1    0    0    0    0  0.00000000000E+00  0.00000000000E+00  0.14999999963E+04  0.15000000000E+04  0.10566000000E+00 0.  1.
        994   -1    0    0    0    0 -0.00000000000E+00 -0.00000000000E+00  0.11368683772E-12  0.17120000000E+03  0.17120000000E+03 0.  0.
         13    1    1    2    0    0 -0.25109753359E+02  0.14079510477E+02  0.88876281428E+02  0.93422357568E+02  0.10566000000E+00 0.  1.
        994    1    1    2    0    0  0.17332913680E+02 -0.12426181655E+02  0.60328716128E+01  0.17262872133E+03  0.17120000000E+03 0.  0.
        998    1    1    2    0    0  0.77768396800E+01 -0.16533288223E+01  0.14050908432E+04  0.14051489211E+04  0.10000000000E+02 0.  1.
</event>
<event>
 5    1  0.9130022E-009  0.3804331E+03  0.7957747E-01  0.3449275E+00
         13   -1    0    0    0    0  0.00000000000E+00  0.00000000000E+00  0.14999999963E+04  0.15000000000E+04  0.10566000000E+00 0.  1.
        994   -1    0    0    0    0 -0.00000000000E+00 -0.00000000000E+00  0.11368683772E-12  0.17120000000E+03  0.17120000000E+03 0.  0.
         13    1    1    2    0    0 -0.13626836783E+01 -0.14230311774E+02  0.24827967552E+02  0.28649569225E+02  0.10566000000E+00 0.  1.
        994    1    1    2    0    0  0.22095221334E+01  0.54766159551E+01  0.40311204554E+01  0.17134924932E+03  0.17120000000E+03 0.  0.
        998    1    1    2    0    0 -0.84683845516E+00  0.87536958184E+01  0.14711409083E+04  0.14712011815E+04  0.10000000000E+02 0.  1.
</event>
<event>
 5    1  0.9130022E-009  0.3777069E+03  0.7957747E-01  0.3461204E+00
         13   -1    0    0    0    0  0.00000000000E+00  0.00000000000E+00  0.14999999963E+04  0.15000000000E+04  0.10566000000E+00 0. -1.
        994   -1    0    0    0    0 -0.00000000000E+00 -0.00000000000E+00  0.11368683772E-12  0.17120000000E+03  0.17120000000E+03 0.  0.
         13    1    1    2    0    0  0.82738323646E+01  0.60875007720E+02  0.30566384536E+03  0.31177655523E+03  0.10566000000E+00 0. -1.
        994    1    1    2    0    0 -0.22274146456E+02 -0.50777867154E+02  0.15722508285E+02  0.18064098832E+03  0.17120000000E+03 0.  0.
        998    1    1    2    0    0  0.14000314091E+02 -0.10097140566E+02  0.11786136426E+04  0.11787824565E+04  0.10000000000E+02 0. -1.
</event>
<event>
 5    1  0.9130022E-009  0.3837889E+03  0.7957747E-01  0.3434825E+00
         13   -1    0    0    0    0  0.00000000000E+00  0.00000000000E+00  0.14999999963E+04  0.15000000000E+04  0.10566000000E+00 0.  1.
        994   -1    0    0    0    0 -0.00000000000E+00 -0.00000000000E+00  0.11368683772E-12  0.17120000000E+03  0.17120000000E+03 0.  0.
         13    1    1    2    0    0 -0.13349328650E+02 -0.42375871715E+01  0.42470677196E+02  0.44720591521E+02  0.10566000000E+00 0.  1.
        994    1    1    2    0    0  0.13726285022E+02  0.30031336384E+01  0.28847137019E+01  0.17179985822E+03  0.17120000000E+03 0.  0.
        998    1    1    2    0    0 -0.37695637208E+00  0.12344535331E+01  0.14546446054E+04  0.14546795503E+04  0.10000000000E+02 0.  1.
</event>
<event>
 5    1  0.9130022E-009  0.3838441E+03  0.7957747E-01  0.3434589E+00
         13   -1    0    0    0    0  0.00000000000E+00  0.00000000000E+00  0.14999999963E+04  0.15000000000E+04  0.10566000000E+00 0.  1.
        994   -1    0    0    0    0 -0.00000000000E+00 -0.00000000000E+00  0.11368683772E-12  0.17120000000E+03  0.17120000000E+03 0.  0.
         13    1    1    2    0    0 -0.15321303609E+02  0.18151125609E+02  0.13587999546E+03  0.13794053079E+03  0.10566000000E+00 0.  1.
        994    1    1    2    0    0  0.76543547958E+01 -0.21924613183E+01  0.24143981064E+01  0.17140205761E+03  0.17120000000E+03 0.  0.
        998    1    1    2    0    0  0.76669488133E+01 -0.15958664291E+02  0.13617056027E+04  0.13618574116E+04  0.10000000000E+02 0.  1.
</event>
<event>
 5    1  0.9130022E-009  0.3826878E+03  0.7957747E-01  0.3439538E+00
         13   -1    0    0    0    0  0.00000000000E+00  0.00000000000E+00  0.14999999963E+04  0.15000000000E+04  0.10566000000E+00 0. -1.
        994   -1    0    0    0    0 -0.00000000000E+00 -0.00000000000E+00  0.11368683772E-12  0.17120000000E+03  0.17120000000E+03 0.  0.
         13    1    1    2    0    0 -0.19196595760E+02  0.54375013665E+01  0.69277555646E+02  0.72093457333E+02  0.10566000000E+00 0. -1.
        994    1    1    2    0    0  0.16822577191E+02 -0.19213667846E+01  0.37329995472E+01  0.17207575669E+03  0.17120000000E+03 0.  0.
        998    1    1    2    0    0  0.23740185692E+01 -0.35161345820E+01  0.14269894411E+04  0.14270307860E+04  0.10000000000E+02 0. -1.
</event>
<event>
 5    1  0.9130022E-009  0.3928980E+03  0.7957747E-01  0.3396851E+00
         13   -1    0    0    0    0  0.00000000000E+00  0.00000000000E+00  0.14999999963E+04  0.15000000000E+04  0.10566000000E+00 0.  1.
        994   -1    0    0    0    0 -0.00000000000E+00 -0.00000000000E+00  0.11368683772E-12  0.17120000000E+03  0.17120000000E+03 0.  0.
         13    1    1    2    0    0  0.19894566177E+02  0.80420098442E+01 -0.81791563770E+00  0.21474352976E+02  0.10566000000E+00 0.  1.
        994    1    1    2    0    0 -0.25966181080E+02 -0.17989181559E+02  0.27406200402E+02  0.17623391567E+03  0.17120000000E+03 0.  0.
        998    1    1    2    0    0  0.60716149025E+01  0.99471717144E+01  0.14734117115E+04  0.14734917314E+04  0.10000000000E+02 0.  1.
</event>
<event>
 5    1  0.9130022E-009  0.3851132E+03  0.7957747E-01  0.3429192E+00
         13   -1    0    0    0    0  0.00000000000E+00  0.00000000000E+00  0.14999999963E+04  0.15000000000E+04  0.10566000000E+00 0. -1.
        994   -1    0    0    0    0 -0.00000000000E+00 -0.00000000000E+00  0.11368683772E-12  0.17120000000E+03  0.17120000000E+03 0.  0.
         13    1    1    2    0    0  0.87699072650E+01  0.11846173171E+02  0.84724494324E+02  0.85997059221E+02  0.10566000000E+00 0. -1.
        994    1    1    2    0    0 -0.18422467477E+01  0.22052769395E+02  0.31854979134E+01  0.17265371675E+03  0.17120000000E+03 0.  0.
        998    1    1    2    0    0 -0.69276605173E+01 -0.33898942566E+02  0.14120900040E+04  0.14125492240E+04  0.10000000000E+02 0. -1.
</event>
<event>
 5    1  0.9130022E-009  0.3812926E+03  0.7957747E-01  0.3445549E+00
         13   -1    0    0    0    0  0.00000000000E+00  0.00000000000E+00  0.14999999963E+04  0.15000000000E+04  0.10566000000E+00 0.  1.
        994   -1    0    0    0    0 -0.00000000000E+00 -0.00000000000E+00  0.11368683772E-12  0.17120000000E+03  0.17120000000E+03 0.  0.
         13    1    1    2    0    0 -0.26680662040E+02  0.14573377022E+02  0.19279133269E+02  0.35999127606E+02  0.10566000000E+00 0.  1.
        994    1    1    2    0    0  0.35277355436E+02 -0.18262807242E+02  0.22806142787E+02  0.17722184426E+03  0.17120000000E+03 0.  0.
        998    1    1    2    0    0 -0.85966933961E+01  0.36894302207E+01  0.14579147202E+04  0.14579790281E+04  0.10000000000E+02 0.  1.
</event>
<event>
 5    1  0.9130022E-009  0.3789889E+03  0.7957747E-01  0.3455573E+00
         13   -1    0    0    0    0  0.00000000000E+00  0.00000000000E+00  0.14999999963E+04  0.15000000000E+04  0.10566000000E+00 0. -1.
        994   -1    0    0    0    0 -0.00000000000E+00 -0.00000000000E+00  0.11368683772E-12  0.17120000000E+03  0.17120000000E+03 0.  0.
         13    1    1    2    0    0  0.83504441615E+02  0.44001685072E+02  0.56096957111E+03  0.56885499992E+03  0.10566000000E+00 0. -1.
        994    1    1    2    0    0 -0.86890806246E+02 -0.45146238388E+02  0.37507681372E+02  0.20075971013E+03  0.17120000000E+03 0.  0.
        998    1    1    2    0    0  0.33863646310E+01  0.11445533154E+01  0.90152274379E+03  0.90158528995E+03  0.10000000000E+02 0.  0.
</event>
<event>
 5    1  0.9130022E-009  0.3703918E+03  0.7957747E-01  0.3494092E+00
         13   -1    0    0    0    0  0.00000000000E+00  0.00000000000E+00  0.14999999963E+04  0.15000000000E+04  0.10566000000E+00 0. -1.
        994   -1    0    0    0    0 -0.00000000000E+00 -0.00000000000E+00  0.11368683772E-12  0.17120000000E+03  0.17120000000E+03 0.  0.
         13    1    1    2    0    0  0.11180758857E+03  0.21833955774E+03  0.12203789178E+04  0.12447882605E+04  0.10566000000E+00 0. -1.
        994    1    1    2    0    0 -0.11550653572E+03 -0.18285831309E+03  0.20695464416E+03  0.34484574406E+03  0.17120000000E+03 0.  0.
        998    1    1    2    0    0  0.36989471559E+01 -0.35481244652E+02  0.72666434298E+02  0.81565995401E+02  0.10000000000E+02 0.  1.
</event>
<event>
 5    1  0.9130022E-009  0.4186479E+03  0.7957747E-01  0.3298408E+00
         13   -1    0    0    0    0  0.00000000000E+00  0.00000000000E+00  0.14999999963E+04  0.15000000000E+04  0.10566000000E+00 0. -1.
        994   -1    0    0    0    0 -0.00000000000E+00 -0.00000000000E+00  0.11368683772E-12  0.17120000000E+03  0.17120000000E+03 0.  0.
         13    1    1    2    0    0 -0.80606918674E+02  0.18965254425E+02  0.71944845539E+02  0.10969607184E+03  0.10566000000E+00 0. -1.
        994    1    1    2    0    0  0.78479254306E+02 -0.15442888905E+02  0.67125274434E+02  0.20053109146E+03  0.17120000000E+03 0.  0.
        998    1    1    2    0    0  0.21276643681E+01 -0.35223655194E+01  0.13609298763E+04  0.13609728367E+04  0.10000000000E+02 0. -1.
</event>
<event>
 5    1  0.9130022E-009  0.3846040E+03  0.7957747E-01  0.3431354E+00
         13   -1    0    0    0    0  0.00000000000E+00  0.00000000000E+00  0.14999999963E+04  0.15000000000E+04  0.10566000000E+00 0. -1.
        994   -1    0    0    0    0 -0.00000000000E+00 -0.00000000000E+00  0.11368683772E-12  0.17120000000E+03  0.17120000000E+03 0.  0.
         13    1    1    2    0    0 -0.12211212937E+02  0.12480032513E+02  0.85342355936E+02  0.87110239431E+02  0.10566000000E+00 0. -1.
        994    1    1    2    0    0  0.12366710296E+02  0.11655171443E+01  0.23351236441E+01  0.17166591612E+03  0.17120000000E+03 0.  0.
        998    1    1    2    0    0 -0.15549735911E+00 -0.13645549657E+02  0.14123225167E+04  0.14124238445E+04  0.10000000000E+02 0. -1.
</event>
<event>
 5    1  0.9130022E-009  0.3784875E+03  0.7957747E-01  0.3457771E+00
         13   -1    0    0    0    0  0.00000000000E+00  0.00000000000E+00  0.14999999963E+04  0.15000000000E+04  0.10566000000E+00 0.  1.
        994   -1    0    0    0    0 -0.00000000000E+00 -0.00000000000E+00  0.11368683772E-12  0.17120000000E+03  0.17120000000E+03 0.  0.
         13    1    1    2    0    0  0.32697740155E+02  0.11733878208E+02  0.12725326769E+03  0.13190993674E+03  0.10566000000E+00 0.  1.
        994    1    1    2    0    0 -0.11936264226E+02 -0.27676841034E+01  0.54031726101E+01  0.17172294184E+03  0.17120000000E+03 0.  0.
        998    1    1    2    0    0 -0.20761475930E+02 -0.89661941042E+01  0.13673435560E+04  0.13675671214E+04  0.10000000000E+02 0.  1.
</event>
<event>
 5    1  0.9130022E-009  0.3816648E+03  0.7957747E-01  0.3443941E+00
         13   -1    0    0    0    0  0.00000000000E+00  0.00000000000E+00  0.14999999963E+04  0.15000000000E+04  0.10566000000E+00 0. -1.
        994   -1    0    0    0    0 -0.00000000000E+00 -0.00000000000E+00  0.11368683772E-12  0.17120000000E+03  0.17120000000E+03 0.  0.
         13    1    1    2    0    0  0.16034754772E+02  0.27069616057E+02  0.11322091097E+03  0.11751111998E+03  0.10566000000E+00 0. -1.
        994    1    1    2    0    0 -0.21467650718E+02 -0.64288547024E+02  0.18721573225E+02  0.18507786094E+03  0.17120000000E+03 0.  0.
        998    1    1    2    0    0  0.54328959461E+01  0.37218930968E+02  0.13680575121E+04  0.13686110191E+04  0.10000000000E+02 0. -1.
</event>
<event>
 5    1  0.9130022E-009  0.3817756E+03  0.7957747E-01  0.3443463E+00
         13   -1    0    0    0    0  0.00000000000E+00  0.00000000000E+00  0.14999999963E+04  0.15000000000E+04  0.10566000000E+00 0.  1.
        994   -1    0    0    0    0 -0.00000000000E+00 -0.00000000000E+00  0.11368683772E-12  0.17120000000E+03  0.17120000000E+03 0.  0.
         13    1    1    2    0    0 -0.41132006205E+01  0.95920419154E+01  0.15009767737E+02  0.18281957745E+02  0.10566000000E+00 0.  1.
        994    1    1    2    0    0  0.13712316429E+02 -0.14597815440E+02  0.45737389049E+01  0.17242819643E+03  0.17120000000E+03 0.  0.
        998    1    1    2    0    0 -0.95991158089E+01  0.50057735251E+01  0.14804164896E+04  0.14804898458E+04  0.10000000000E+02 0.  1.
</event>
<event>
 5    1  0.9130022E-009  0.3708836E+03  0.7957747E-01  0.3491840E+00
         13   -1    0    0    0    0  0.00000000000E+00  0.00000000000E+00  0.14999999963E+04  0.15000000000E+04  0.10566000000E+00 0.  1.
        994   -1    0    0    0    0 -0.00000000000E+00 -0.00000000000E+00  0.11368683772E-12  0.17120000000E+03  0.17120000000E+03 0.  0.
         13    1    1    2    0    0 -0.91331091005E+01 -0.23283518861E+02  0.31654603986E+02  0.40343042150E+02  0.10566000000E+00 0.  1.
        994    1    1    2    0    0  0.79647654105E+01  0.18872309818E+02  0.10255722293E+02  0.17272585622E+03  0.17120000000E+03 0.  0.
        998    1    1    2    0    0  0.11683436900E+01  0.44112090427E+01  0.14580896700E+04  0.14581311016E+04  0.10000000000E+02 0.  1.
</event>
<event>
 5    1  0.9130022E-009  0.3685372E+03  0.7957747E-01  0.3502641E+00
         13   -1    0    0    0    0  0.00000000000E+00  0.00000000000E+00  0.14999999963E+04  0.15000000000E+04  0.10566000000E+00 0. -1.
        994   -1    0    0    0    0 -0.00000000000E+00 -0.00000000000E+00  0.11368683772E-12  0.17120000000E+03  0.17120000000E+03 0.  0.
         13    1    1    2    0    0 -0.76128071463E+02 -0.10201004707E+02  0.25011975648E+03  0.26164756355E+03  0.10566000000E+00 0. -1.
        994    1    1    2    0    0  0.70553058611E+02  0.11356314455E+02  0.27998813546E+02  0.18761682632E+03  0.17120000000E+03 0.  0.
        998    1    1    2    0    0  0.55750128524E+01 -0.11553097485E+01  0.12218814262E+04  0.12219356101E+04  0.10000000000E+02 0. -1.
</event>
<event>
 5    1  0.9130022E-009  0.3739459E+03  0.7957747E-01  0.3477951E+00
         13   -1    0    0    0    0  0.00000000000E+00  0.00000000000E+00  0.14999999963E+04  0.15000000000E+04  0.10566000000E+00 0. -1.
        994   -1    0    0    0    0 -0.00000000000E+00 -0.00000000000E+00  0.11368683772E-12  0.17120000000E+03  0.17120000000E+03 0.  0.
         13    1    1    2    0    0 -0.39146021519E+01 -0.57004540485E+02  0.30230363447E+03  0.30765620475E+03  0.10566000000E+00 0. -1.
        994    1    1    2    0    0  0.28640001704E+02 -0.69584122497E+01  0.10190074131E+02  0.17401708769E+03  0.17120000000E+03 0.  0.
        998    1    1    2    0    0 -0.24725399552E+02  0.63962952735E+02  0.11875062877E+04  0.11895267076E+04  0.10000000000E+02 0. -1.
</event>
<event>
 5    1  0.9130022E-009  0.3702009E+03  0.7957747E-01  0.3494968E+00
         13   -1    0    0    0    0  0.00000000000E+00  0.00000000000E+00  0.14999999963E+04  0.15000000000E+04  0.10566000000E+00 0. -1.
        994   -1    0    0    0    0 -0.00000000000E+00 -0.00000000000E+00  0.11368683772E-12  0.17120000000E+03  0.17120000000E+03 0.  0.
         13    1    1    2    0    0 -0.38186109872E+01 -0.59315286626E+02  0.19485794366E+03  0.20372165910E+03  0.10566000000E+00 0. -1.
        994    1    1    2    0    0  0.14569601273E+01  0.29951122890E+02  0.12277346897E+02  0.17423939205E+03  0.17120000000E+03 0.  0.
        998    1    1    2    0    0  0.23616508599E+01  0.29364163735E+02  0.12928647057E+04  0.12932389488E+04  0.10000000000E+02 0. -1.
</event>
<event>
 5    1  0.9130022E-009  0.3737770E+03  0.7957747E-01  0.3478711E+00
         13   -1    0    0    0    0  0.00000000000E+00  0.00000000000E+00  0.14999999963E+04  0.15000000000E+04  0.10566000000E+00 0. -1.
        994   -1    0    0    0    0 -0.00000000000E+00 -0.00000000000E+00  0.11368683772E-12  0.17120000000E+03  0.17120000000E+03 0.  0.
         13    1    1    2    0    0  0.37467281808E+02  0.40727329991E+02  0.17308739906E+03  0.18171893542E+03  0.10566000000E+00 0. -1.
        994    1    1    2    0    0 -0.54443118596E+02 -0.40541133403E+02  0.23202109551E+02  0.18562169741E+03  0.17120000000E+03 0.  0.
        998    1    1    2    0    0  0.16975836788E+02 -0.18619658762E+00  0.13037104877E+04  0.13038593672E+04  0.10000000000E+02 0. -1.
</event>
<event>
 5    1  0.9130022E-009  0.3784336E+03  0.7957747E-01  0.3458007E+00
         13   -1    0    0    0    0  0.00000000000E+00  0.00000000000E+00  0.14999999963E+04  0.15000000000E+04  0.10566000000E+00 0. -1.
        994   -1    0    0    0    0 -0.00000000000E+00 -0.00000000000E+00  0.11368683772E-12  0.17120000000E+03  0.17120000000E+03 0.  0.
         13    1    1    2    0    0  0.13233929500E+02 -0.25590856404E+02  0.75472635652E+02  0.80784644072E+02  0.10566000000E+00 0. -1.
        994    1    1    2    0    0 -0.40880809933E+01  0.42098529435E+02  0.10961162473E+02  0.17668781981E+03  0.17120000000E+03 0.  0.
        998    1    1    2    0    0 -0.91458485070E+01 -0.16507673030E+02  0.14135661982E+04  0.14137275361E+04  0.10000000000E+02 0. -1.
</event>
<event>
 5    1  0.9130022E-009  0.3814737E+03  0.7957747E-01  0.3444767E+00
         13   -1    0    0    0    0  0.00000000000E+00  0.00000000000E+00  0.14999999963E+04  0.15000000000E+04  0.10566000000E+00 0.  1.
        994   -1    0    0    0    0 -0.00000000000E+00 -0.00000000000E+00  0.11368683772E-12  0.17120000000E+03  0.17120000000E+03 0.  0.
         13    1    1    2    0    0  0.11738794018E+02  0.23174046147E+02  0.10438997957E+03  0.10757376398E+03  0.10566000000E+00 0.  1.
        994    1    1    2    0    0  0.54509995755E+01 -0.91708534225E+01  0.37697909343E+01  0.17157350982E+03  0.17120000000E+03 0.  0.
        998    1    1    2    0    0 -0.17189793594E+02 -0.14003192725E+02  0.13918402258E+04  0.13920527262E+04  0.10000000000E+02 0.  1.
</event>
<event>
 5    1  0.9130022E-009  0.3895539E+03  0.7957747E-01  0.3410585E+00
         13   -1    0    0    0    0  0.00000000000E+00  0.00000000000E+00  0.14999999963E+04  0.15000000000E+04  0.10566000000E+00 0.  1.
        994   -1    0    0    0    0 -0.00000000000E+00 -0.00000000000E+00  0.11368683772E-12  0.17120000000E+03  0.17120000000E+03 0.  0.
         13    1    1    2    0    0  0.11665138678E+03  0.21591022660E+02  0.42617300394E+03  0.44237671588E+03  0.10566000000E+00 0.  1.
        994    1    1    2    0    0 -0.27799162267E+02  0.17100062659E+02  0.25688034643E+02  0.17616617351E+03  0.17120000000E+03 0.  0.
        998    1    1    2    0    0 -0.88852224517E+02 -0.38691085318E+02  0.10481389577E+04  0.10526571106E+04  0.10000000000E+02 0.  1.
</event>
<event>
 5    1  0.9130022E-009  0.3803568E+03  0.7957747E-01  0.3449606E+00
         13   -1    0    0    0    0  0.00000000000E+00  0.00000000000E+00  0.14999999963E+04  0.15000000000E+04  0.10566000000E+00 0. -1.
        994   -1    0    0    0    0 -0.00000000000E+00 -0.00000000000E+00  0.11368683772E-12  0.17120000000E+03  0.17120000000E+03 0.  0.
         13    1    1    2    0    0 -0.21958928924E+03 -0.15573283676E+03  0.10227736727E+04  0.10576096487E+04  0.10566000000E+00 0. -1.
        994    1    1    2    0    0  0.22133250268E+03  0.15574934875E+03  0.30885103404E+03  0.44490935886E+03  0.17120000000E+03 0.  0.
        998    1    1    2    0    0 -0.17432134416E+01 -0.16511988283E-01  0.16837528958E+03  0.16868099243E+03  0.10000000000E+02 0.  0.
</event>
<event>
 5    1  0.9130022E-009  0.3742032E+03  0.7957747E-01  0.3476794E+00
         13   -1    0    0    0    0  0.00000000000E+00  0.00000000000E+00  0.14999999963E+04  0.15000000000E+04  0.10566000000E+00 0. -1.
        994   -1    0    0    0    0 -0.00000000000E+00 -0.00000000000E+00  0.11368683772E-12  0.17120000000E+03  0.17120000000E+03 0.  0.
         13    1    1    2    0    0  0.18807545239E+02  0.11937559522E+02  0.33000457441E+02  0.39815454796E+02  0.10566000000E+00 0. -1.
        994    1    1    2    0    0 -0.43590224672E+01 -0.25753392269E+01  0.71758655252E+01  0.17142510462E+03  0.17120000000E+03 0.  0.
        998    1    1    2    0    0 -0.14448522771E+02 -0.93622202948E+01  0.14598236733E+04  0.14599594406E+04  0.10000000000E+02 0. -1.
</event>
<event>
 5    1  0.9130022E-009  0.3853416E+03  0.7957747E-01  0.3428225E+00
         13   -1    0    0    0    0  0.00000000000E+00  0.00000000000E+00  0.14999999963E+04  0.15000000000E+04  0.10566000000E+00 0. -1.
        994   -1    0    0    0    0 -0.00000000000E+00 -0.00000000000E+00  0.11368683772E-12  0.17120000000E+03  0.17120000000E+03 0.  0.
         13    1    1    2    0    0  0.94019538386E+01  0.14602458183E+02  0.98962344771E+02  0.10047479966E+03  0.10566000000E+00 0. -1.
        994    1    1    2    0    0 -0.67767227406E+01 -0.15519942781E+02  0.24033067659E+01  0.17205234226E+03  0.17120000000E+03 0.  0.
        998    1    1    2    0    0 -0.26252310981E+01  0.91748459799E+00  0.13986343447E+04  0.13986728581E+04  0.10000000000E+02 0. -1.
</event>
<event>
 5    1  0.9130022E-009  0.3839353E+03  0.7957747E-01  0.3434200E+00
         13   -1    0    0    0    0  0.00000000000E+00  0.00000000000E+00  0.14999999963E+04  0.15000000000E+04  0.10566000000E+00 0.  1.
        994   -1    0    0    0    0 -0.00000000000E+00 -0.00000000000E+00  0.11368683772E-12  0.17120000000E+03  0.17120000000E+03 0.  0.
         13    1    1    2    0    0 -0.81924190818E+00  0.19249535979E+02  0.81146434715E+02  0.83402462935E+02  0.10566000000E+00 0.  1.
        994    1    1    2    0    0  0.35283476826E+00 -0.20785539971E+02  0.35871053659E+01  0.17249484192E+03  0.17120000000E+03 0.  0.
        998    1    1    2    0    0  0.46640713992E+00  0.15360039922E+01  0.14152664562E+04  0.14153026951E+04  0.10000000000E+02 0.  1.
</event>
<event>
 5    1  0.9130022E-009  0.3825456E+03  0.7957747E-01  0.3440149E+00
         13   -1    0    0    0    0  0.00000000000E+00  0.00000000000E+00  0.14999999963E+04  0.15000000000E+04  0.10566000000E+00 0.  1.
        994   -1    0    0    0    0 -0.00000000000E+00 -0.00000000000E+00  0.11368683772E-12  0.17120000000E+03  0.17120000000E+03 0.  0.
         13    1    1    2    0    0 -0.38448572030E+02 -0.37331916188E+01  0.21851361020E+03  0.22190186664E+03  0.10566000000E+00 0.  1.
        994    1    1    2    0    0  0.43504339101E+02 -0.94185516544E+01  0.94498128847E+01  0.17714422260E+03  0.17120000000E+03 0.  0.
        998    1    1    2    0    0 -0.50557670717E+01  0.13151743273E+02  0.12720365732E+04  0.12721539108E+04  0.10000000000E+02 0.  1.
</event>
<event>
 5    1  0.9130022E-009  0.3750551E+03  0.7957747E-01  0.3472976E+00
         13   -1    0    0    0    0  0.00000000000E+00  0.00000000000E+00  0.14999999963E+04  0.15000000000E+04  0.10566000000E+00 0.  1.
        994   -1    0    0    0    0 -0.00000000000E+00 -0.00000000000E+00  0.11368683772E-12  0.17120000000E+03  0.17120000000E+03 0.  0.
         13    1    1    2    0    0  0.26660156768E+02  0.26012436561E+02  0.11318258942E+03  0.11915418803E+03  0.10566000000E+00 0.  1.
        994    1    1    2    0    0 -0.52178205565E+01  0.58804325754E+01  0.68605176464E+01  0.17151767210E+03  0.17120000000E+03 0.  0.
        998    1    1    2    0    0 -0.21442336211E+02 -0.31892869136E+02  0.13799568892E+04  0.13805281399E+04  0.10000000000E+02 0.  1.
</event>
<event>
 5    1  0.9130022E-009  0.3737031E+03  0.7957747E-01  0.3479043E+00
         13   -1    0    0    0    0  0.00000000000E+00  0.00000000000E+00  0.14999999963E+04  0.15000000000E+04  0.10566000000E+00 0.  1.
        994   -1    0    0    0    0 -0.00000000000E+00 -0.00000000000E+00  0.11368683772E-12  0.17120000000E+03  0.17120000000E+03 0.  0.
         13    1    1    2    0    0  0.62692326112E+01 -0.27490338363E+02  0.57747107775E+02  0.64263221217E+02  0.10566000000E+00 0.  1.
        994    1    1    2    0    0  0.37174632116E+01 -0.17985228286E+02  0.84986012907E+01  0.17239186232E+03  0.17120000000E+03 0.  0.
        998    1    1    2    0    0 -0.99866958228E+01  0.45475566649E+02  0.14337542872E+04  0.14345449165E+04  0.10000000000E+02 0.  1.
</event>
<event>
 5    1  0.9130022E-009  0.3791777E+03  0.7957747E-01  0.3454747E+00
         13   -1    0    0    0    0  0.00000000000E+00  0.00000000000E+00  0.14999999963E+04  0.15000000000E+04  0.10566000000E+00 0.  1.
        994   -1    0    0    0    0 -0.00000000000E+00 -0.00000000000E+00  0.11368683772E-12  0.17120000000E+03  0.17120000000E+03 0.  0.
         13    1    1    2    0    0 -0.15210639272E+02  0.21081270675E+01  0.23659890236E+02  0.28206547411E+02  0.10566000000E+00 0.  1.
        994    1    1    2    0    0  0.16701602256E+02  0.90907940789E+00  0.54871369333E+01  0.17210263977E+03  0.17120000000E+03 0.  0.
        998    1    1    2    0    0 -0.14909629839E+01 -0.30172064754E+01  0.14708529691E+04  0.14708908128E+04  0.10000000000E+02 0.  1.
</event>
<event>
 5    1  0.9130022E-009  0.3795381E+03  0.7957747E-01  0.3453172E+00
         13   -1    0    0    0    0  0.00000000000E+00  0.00000000000E+00  0.14999999963E+04  0.15000000000E+04  0.10566000000E+00 0.  1.
        994   -1    0    0    0    0 -0.00000000000E+00 -0.00000000000E+00  0.11368683772E-12  0.17120000000E+03  0.17120000000E+03 0.  0.
         13    1    1    2    0    0 -0.70864579325E+02 -0.24238318165E+02  0.41779108323E+03  0.42445103965E+03  0.10566000000E+00 0.  1.
        994    1    1    2    0    0  0.72905550249E+02  0.48792545557E+02  0.30579185831E+02  0.19478310595E+03  0.17120000000E+03 0.  0.
        998    1    1    2    0    0 -0.20409709244E+01 -0.24554227392E+02  0.10516297272E+04  0.10519658544E+04  0.10000000000E+02 0.  1.
</event>
<event>
 5    1  0.9130022E-009  0.3799877E+03  0.7957747E-01  0.3451212E+00
         13   -1    0    0    0    0  0.00000000000E+00  0.00000000000E+00  0.14999999963E+04  0.15000000000E+04  0.10566000000E+00 0.  1.
        994   -1    0    0    0    0 -0.00000000000E+00 -0.00000000000E+00  0.11368683772E-12  0.17120000000E+03  0.17120000000E+03 0.  0.
         13    1    1    2    0    0 -0.15550375068E+02  0.10025564982E+02  0.38364024754E+02  0.42592671639E+02  0.10566000000E+00 0.  1.
        994    1    1    2    0    0  0.18206960305E+02 -0.14095857910E+02  0.59138064420E+01  0.17284270225E+03  0.17120000000E+03 0.  0.
        998    1    1    2    0    0 -0.26565852364E+01  0.40702929284E+01  0.14557221651E+04  0.14557646261E+04  0.10000000000E+02 0.  1.
</event>
<event>
 5    1  0.9130022E-009  0.3736847E+03  0.7957747E-01  0.3479126E+00
         13   -1    0    0    0    0  0.00000000000E+00  0.00000000000E+00  0.14999999963E+04  0.15000000000E+04  0.10566000000E+00 0.  1.
        994   -1    0    0    0    0 -0.00000000000E+00 -0.00000000000E+00  0.11368683772E-12  0.17120000000E+03  0.17120000000E+03 0.  0.
         13    1    1    2    0    0 -0.38767168334E+02 -0.14205629421E+02  0.10540321705E+03  0.11320133646E+03  0.10566000000E+00 0.  1.
        994    1    1    2    0    0  0.42909548044E+02  0.67630365880E+01  0.13825958978E+02  0.17716536095E+03  0.17120000000E+03 0.  0.
        998    1    1    2    0    0 -0.41423797100E+01  0.74425928327E+01  0.13807708203E+04  0.13808333026E+04  0.10000000000E+02 0.  1.
</event>
<event>
 5    1  0.9130022E-009  0.3766587E+03  0.7957747E-01  0.3465838E+00
         13   -1    0    0    0    0  0.00000000000E+00  0.00000000000E+00  0.14999999963E+04  0.15000000000E+04  0.10566000000E+00 0.  1.
        994   -1    0    0    0    0 -0.00000000000E+00 -0.00000000000E+00  0.11368683772E-12  0.17120000000E+03  0.17120000000E+03 0.  0.
         13    1    1    2    0    0  0.71416955361E+02 -0.21277947732E+02  0.34566883094E+03  0.35361007398E+03  0.10566000000E+00 0.  1.
        994    1    1    2    0    0 -0.77744734813E+02  0.20625953296E+02  0.28021594176E+02  0.19121799989E+03  0.17120000000E+03 0.  0.
        998    1    1    2    0    0  0.63277794520E+01  0.65199443637E+00  0.11263095712E+04  0.11263719261E+04  0.10000000000E+02 0.  0.
</event>
<event>
 5    1  0.9130022E-009  0.3858091E+03  0.7957747E-01  0.3426248E+00
         13   -1    0    0    0    0  0.00000000000E+00  0.00000000000E+00  0.14999999963E+04  0.15000000000E+04  0.10566000000E+00 0.  1.
        994   -1    0    0    0    0 -0.00000000000E+00 -0.00000000000E+00  0.11368683772E-12  0.17120000000E+03  0.17120000000E+03 0.  0.
         13    1    1    2    0    0 -0.55651463688E+00 -0.14892493744E+02  0.79954676310E+02  0.81331774272E+02  0.10566000000E+00 0.  1.
        994    1    1    2    0    0 -0.10659274070E+02  0.27040820377E+02  0.40049411153E+01  0.17369601505E+03  0.17120000000E+03 0.  0.
        998    1    1    2    0    0  0.11215788707E+02 -0.12148326634E+02  0.14160403789E+04  0.14161722107E+04  0.10000000000E+02 0.  1.
</event>
<event>
 5    1  0.9130022E-009  0.3754423E+03  0.7957747E-01  0.3471247E+00
         13   -1    0    0    0    0  0.00000000000E+00  0.00000000000E+00  0.14999999963E+04  0.15000000000E+04  0.10566000000E+00 0.  1.
        994   -1    0    0    0    0 -0.00000000000E+00 -0.00000000000E+00  0.11368683772E-12  0.17120000000E+03  0.17120000000E+03 0.  0.
         13    1    1    2    0    0  0.16055686907E+02 -0.67039611378E+02  0.29550796790E+03  0.30344202879E+03  0.10566000000E+00 0.  1.
        994    1    1    2    0    0 -0.19856835831E+02  0.65646577373E+02  0.22588110557E+02  0.18580481638E+03  0.17120000000E+03 0.  0.
        998    1    1    2    0    0  0.38011489233E+01  0.13930340053E+01  0.11819039178E+04  0.11819531548E+04  0.10000000000E+02 0.  1.
</event>
<event>
 5    1  0.9130022E-009  0.3862321E+03  0.7957747E-01  0.3424463E+00
         13   -1    0    0    0    0  0.00000000000E+00  0.00000000000E+00  0.14999999963E+04  0.15000000000E+04  0.10566000000E+00 0.  1.
        994   -1    0    0    0    0 -0.00000000000E+00 -0.00000000000E+00  0.11368683772E-12  0.17120000000E+03  0.17120000000E+03 0.  0.
         13    1    1    2    0    0 -0.79611899682E+02 -0.84506125998E+02  0.36365232556E+03  0.38173598855E+03  0.10566000000E+00 0.  1.
        994    1    1    2    0    0  0.45840209451E+02  0.32569331169E+02  0.31615536974E+02  0.18295099976E+03  0.17120000000E+03 0.  0.
        998    1    1    2    0    0  0.33771690231E+02  0.51936794830E+02  0.11047321337E+04  0.11065130117E+04  0.10000000000E+02 0.  1.
</event>
<event>
 5    1  0.9130022E-009  0.3842853E+03  0.7957747E-01  0.3432709E+00
         13   -1    0    0    0    0  0.00000000000E+00  0.00000000000E+00  0.14999999963E+04  0.15000000000E+04  0.10566000000E+00 0.  1.
        994   -1    0    0    0    0 -0.00000000000E+00 -0.00000000000E+00  0.11368683772E-12  0.17120000000E+03  0.17120000000E+03 0.  0.
         13    1    1    2    0    0  0.13393454336E+02 -0.18376955725E+02  0.12351221628E+03  0.12558811988E+03  0.10566000000E+00 0.  1.
        994    1    1    2    0    0 -0.35016508379E+00  0.25417746842E+02  0.41182942170E+01  0.17312592185E+03  0.17120000000E+03 0.  0.
        998    1    1    2    0    0 -0.13043289252E+02 -0.70407911174E+01  0.13723694858E+04  0.13724859583E+04  0.10000000000E+02 0.  1.
</event>
<event>
 5    1  0.9130022E-009  0.3716633E+03  0.7957747E-01  0.3488281E+00
         13   -1    0    0    0    0  0.00000000000E+00  0.00000000000E+00  0.14999999963E+04  0.15000000000E+04  0.10566000000E+00 0. -1.
        994   -1    0    0    0    0 -0.00000000000E+00 -0.00000000000E+00  0.11368683772E-12  0.17120000000E+03  0.17120000000E+03 0.  0.
         13    1    1    2    0    0  0.54092650897E+02 -0.28219156880E-01  0.18845989844E+03  0.19606927388E+03  0.10566000000E+00 0. -1.
        994    1    1    2    0    0 -0.14378931080E+02 -0.21686769611E+02  0.10733493580E+02  0.17349846547E+03  0.17120000000E+03 0.  0.
        998    1    1    2    0    0 -0.39713719817E+02  0.21714988768E+02  0.13008066043E+04  0.13016322607E+04  0.10000000000E+02 0. -1.
</event>
<event>
 5    1  0.9130022E-009  0.3819445E+03  0.7957747E-01  0.3442735E+00
         13   -1    0    0    0    0  0.00000000000E+00  0.00000000000E+00  0.14999999963E+04  0.15000000000E+04  0.10566000000E+00 0. -1.
        994   -1    0    0    0    0 -0.00000000000E+00 -0.00000000000E+00  0.11368683772E-12  0.17120000000E+03  0.17120000000E+03 0.  0.
         13    1    1    2    0    0 -0.17293713199E+02  0.78049390954E+01  0.52960634908E+02  0.56256818293E+02  0.10566000000E+00 0. -1.
        994    1    1    2    0    0  0.20992990934E+02 -0.15186751703E+02  0.53879111859E+01  0.17323340522E+03  0.17120000000E+03 0.  0.
        998    1    1    2    0    0 -0.36992777356E+01  0.73818126080E+01  0.14416514502E+04  0.14417097765E+04  0.10000000000E+02 0. -1.
</event>
<event>
 5    1  0.9130022E-009  0.3826247E+03  0.7957747E-01  0.3439809E+00
         13   -1    0    0    0    0  0.00000000000E+00  0.00000000000E+00  0.14999999963E+04  0.15000000000E+04  0.10566000000E+00 0.  1.
        994   -1    0    0    0    0 -0.00000000000E+00 -0.00000000000E+00  0.11368683772E-12  0.17120000000E+03  0.17120000000E+03 0.  0.
         13    1    1    2    0    0  0.12457972084E+02 -0.26211323965E+02  0.14132501037E+03  0.14427405967E+03  0.10566000000E+00 0.  1.
        994    1    1    2    0    0 -0.26624563311E+02  0.14893356495E+02  0.59046014235E+01  0.17399707974E+03  0.17120000000E+03 0.  0.
        998    1    1    2    0    0  0.14166591227E+02  0.11317967470E+02  0.13527703845E+04  0.13529288606E+04  0.10000000000E+02 0.  1.
</event>
<event>
 5    1  0.1061906E-008  0.3859015E+03  0.7957747E-01  0.3425858E+00
         13   -1    0    0    0    0  0.00000000000E+00  0.00000000000E+00  0.14999999963E+04  0.15000000000E+04  0.10566000000E+00 0. -1.
        994   -1    0    0    0    0 -0.00000000000E+00 -0.00000000000E+00  0.11368683772E-12  0.17120000000E+03  0.17120000000E+03 0.  0.
         13    1    1    2    0    0 -0.66751416641E+01  0.98499456797E+01  0.57855891477E+02  0.59066862866E+02  0.10566000000E+00 0. -1.
        994    1    1    2    0    0  0.68783452839E+01 -0.12588620108E+02  0.18583070050E+01  0.17181000639E+03  0.17120000000E+03 0.  0.
        998    1    1    2    0    0 -0.20320361975E+00  0.27386744280E+01  0.14402857978E+04  0.14403231307E+04  0.10000000000E+02 0. -1.
</event>
<event>
 5    1  0.9130022E-009  0.2745547E+03  0.7957747E-01  0.4096283E+00
         13   -1    0    0    0    0  0.00000000000E+00  0.00000000000E+00  0.14999999963E+04  0.15000000000E+04  0.10566000000E+00 0.  1.
        994   -1    0    0    0    0 -0.00000000000E+00 -0.00000000000E+00  0.11368683772E-12  0.17120000000E+03  0.17120000000E+03 0.  0.
         13    1    1    2    0    0 -0.18381542038E+02 -0.18608211185E+03  0.45038065369E+03  0.48765477319E+03  0.10566000000E+00 0.  1.
        994    1    1    2    0    0 -0.12516153487E+03  0.20227464437E+03  0.29747557832E+03  0.41759023128E+03  0.17120000000E+03 0.  0.
        998    1    1    2    0    0  0.14354307691E+03 -0.16192532525E+02  0.75214376427E+03  0.76595499552E+03  0.10000000000E+02 0.  1.
</event>
<event>
 5    1  0.9130022E-009  0.3755656E+03  0.7957747E-01  0.3470697E+00
         13   -1    0    0    0    0  0.00000000000E+00  0.00000000000E+00  0.14999999963E+04  0.15000000000E+04  0.10566000000E+00 0.  1.
        994   -1    0    0    0    0 -0.00000000000E+00 -0.00000000000E+00  0.11368683772E-12  0.17120000000E+03  0.17120000000E+03 0.  0.
         13    1    1    2    0    0 -0.12815141992E+02  0.17909198243E+02  0.33977573199E+02  0.40490170295E+02  0.10566000000E+00 0.  1.
        994    1    1    2    0    0  0.11610636188E+02 -0.27440728930E+02  0.94065401328E+01  0.17402793877E+03  0.17120000000E+03 0.  0.
        998    1    1    2    0    0  0.12045058036E+01  0.95315306867E+01  0.14566158829E+04  0.14566818909E+04  0.10000000000E+02 0.  1.
</event>
<event>
 5    1  0.9130022E-009  0.3705589E+03  0.7957747E-01  0.3493326E+00
         13   -1    0    0    0    0  0.00000000000E+00  0.00000000000E+00  0.14999999963E+04  0.15000000000E+04  0.10566000000E+00 0.  1.
        994   -1    0    0    0    0 -0.00000000000E+00 -0.00000000000E+00  0.11368683772E-12  0.17120000000E+03  0.17120000000E+03 0.  0.
         13    1    1    2    0    0  0.39139214828E+02  0.10459767987E+02  0.87691020781E+02  0.96597159241E+02  0.10566000000E+00 0.  1.
        994    1    1    2    0    0 -0.29097878972E+02  0.33478551673E+01  0.11943528859E+02  0.17409762370E+03  0.17120000000E+03 0.  0.
        998    1    1    2    0    0 -0.10041335856E+02 -0.13807623155E+02  0.14003654466E+04  0.14005052171E+04  0.10000000000E+02 0.  1.
</event>
<event>
 5    1  0.9130022E-009  0.3849360E+03  0.7957747E-01  0.3429944E+00
         13   -1    0    0    0    0  0.00000000000E+00  0.00000000000E+00  0.14999999963E+04  0.15000000000E+04  0.10566000000E+00 0.  1.
        994   -1    0    0    0    0 -0.00000000000E+00 -0.00000000000E+00  0.11368683772E-12  0.17120000000E+03  0.17120000000E+03 0.  0.
         13    1    1    2    0    0  0.96371799783E+01  0.39441522834E+01  0.34335812060E+02  0.35880227550E+02  0.10566000000E+00 0.  1.
        994    1    1    2    0    0  0.33063112494E+01  0.60349920553E+01  0.18176835140E+01  0.17134788238E+03  0.17120000000E+03 0.  0.
        998    1    1    2    0    0 -0.12943491228E+02 -0.99791443387E+01  0.14638465007E+04  0.14639718901E+04  0.10000000000E+02 0.  1.
</event>
<event>
 5    1  0.9130022E-009  0.3825455E+03  0.7957747E-01  0.3440149E+00
         13   -1    0    0    0    0  0.00000000000E+00  0.00000000000E+00  0.14999999963E+04  0.15000000000E+04  0.10566000000E+00 0.  1.
        994   -1    0    0    0    0 -0.00000000000E+00 -0.00000000000E+00  0.11368683772E-12  0.17120000000E+03  0.17120000000E+03 0.  0.
         13    1    1    2    0    0  0.74605453274E+01 -0.28152059835E+02  0.13370249937E+03  0.13683774228E+03  0.10566000000E+00 0.  1.
        994    1    1    2    0    0 -0.12303718835E+02  0.29693343869E+02  0.62859141403E+01  0.17430441441E+03  0.17120000000E+03 0.  0.
        998    1    1    2    0    0  0.48431735079E+01 -0.15412840339E+01  0.13600115828E+04  0.13600578433E+04  0.10000000000E+02 0.  1.
</event>
<event>
 5    1  0.9130022E-009  0.3785417E+03  0.7957747E-01  0.3457533E+00
         13   -1    0    0    0    0  0.00000000000E+00  0.00000000000E+00  0.14999999963E+04  0.15000000000E+04  0.10566000000E+00 0.  1.
        994   -1    0    0    0    0 -0.00000000000E+00 -0.00000000000E+00  0.11368683772E-12  0.17120000000E+03  0.17120000000E+03 0.  0.
         13    1    1    2    0    0 -0.38547531433E+02 -0.48062226791E+02  0.34112055745E+03  0.34663977802E+03  0.10566000000E+00 0.  1.
        994    1    1    2    0    0  0.13877069651E+02  0.52939450041E+02  0.14998860259E+02  0.18035954159E+03  0.17120000000E+03 0.  0.
        998    1    1    2    0    0  0.24670461782E+02 -0.48772232497E+01  0.11438805786E+04  0.11442006804E+04  0.10000000000E+02 0.  1.
</event>
<event>
 5    1  0.9130022E-009  0.3707098E+03  0.7957747E-01  0.3492635E+00
         13   -1    0    0    0    0  0.00000000000E+00  0.00000000000E+00  0.14999999963E+04  0.15000000000E+04  0.10566000000E+00 0.  1.
        994   -1    0    0    0    0 -0.00000000000E+00 -0.00000000000E+00  0.11368683772E-12  0.17120000000E+03  0.17120000000E+03 0.  0.
         13    1    1    2    0    0  0.52468836769E+02 -0.52301108355E+02  0.24421526506E+03  0.25520480328E+03  0.10566000000E+00 0.  1.
        994    1    1    2    0    0 -0.60108960214E+02  0.55192143287E+02  0.32231117026E+02  0.19237345109E+03  0.17120000000E+03 0.  0.
        998    1    1    2    0    0  0.76401234456E+01 -0.28910349325E+01  0.12235536142E+04  0.12236217456E+04  0.10000000000E+02 0.  1.
</event>
<event>
 5    1  0.9130022E-009  0.3831010E+03  0.7957747E-01  0.3437766E+00
         13   -1    0    0    0    0  0.00000000000E+00  0.00000000000E+00  0.14999999963E+04  0.15000000000E+04  0.10566000000E+00 0.  1.
        994   -1    0    0    0    0 -0.00000000000E+00 -0.00000000000E+00  0.11368683772E-12  0.17120000000E+03  0.17120000000E+03 0.  0.
         13    1    1    2    0    0  0.17999402789E+02  0.20019266552E+01  0.62694497177E+02  0.65257929414E+02  0.10566000000E+00 0.  1.
        994    1    1    2    0    0 -0.13010439011E+02  0.38663715914E+01  0.31857046740E+01  0.17176672864E+03  0.17120000000E+03 0.  0.
        998    1    1    2    0    0 -0.49889637778E+01 -0.58682982466E+01  0.14341197944E+04  0.14341753419E+04  0.10000000000E+02 0.  1.
</event>
<event>
 5    1  0.9130022E-009  0.3838380E+03  0.7957747E-01  0.3434615E+00
         13   -1    0    0    0    0  0.00000000000E+00  0.00000000000E+00  0.14999999963E+04  0.15000000000E+04  0.10566000000E+00 0. -1.
        994   -1    0    0    0    0 -0.00000000000E+00 -0.00000000000E+00  0.11368683772E-12  0.17120000000E+03  0.17120000000E+03 0.  0.
         13    1    1    2    0    0 -0.15497880116E+02 -0.66402011211E+01  0.61976784995E+02  0.64229351557E+02  0.10566000000E+00 0. -1.
        994    1    1    2    0    0  0.14292949031E+02  0.88678433879E+01  0.31426685612E+01  0.17205302498E+03  0.17120000000E+03 0.  0.
        998    1    1    2    0    0  0.12049310841E+01 -0.22276422668E+01  0.14348805427E+04  0.14349176235E+04  0.10000000000E+02 0. -1.
</event>
<event>
 5    1  0.9130022E-009  0.3277313E+03  0.7957747E-01  0.3715989E+00
         13   -1    0    0    0    0  0.00000000000E+00  0.00000000000E+00  0.14999999963E+04  0.15000000000E+04  0.10566000000E+00 0.  1.
        994   -1    0    0    0    0 -0.00000000000E+00 -0.00000000000E+00  0.11368683772E-12  0.17120000000E+03  0.17120000000E+03 0.  0.
         13    1    1    2    0    0 -0.22445395105E+03 -0.13699613729E+03  0.60783484128E+03  0.66227692336E+03  0.10566000000E+00 0.  1.
        994    1    1    2    0    0  0.23410708125E+03  0.13858997833E+03  0.38491535131E+03  0.50148038372E+03  0.17120000000E+03 0.  0.
        998    1    1    2    0    0 -0.96531302013E+01 -0.15938410401E+01  0.50724980369E+03  0.50744269292E+03  0.10000000000E+02 0.  1.
</event>
<event>
 5    1  0.9711030E-009  0.3855995E+03  0.7957747E-01  0.3427134E+00
         13   -1    0    0    0    0  0.00000000000E+00  0.00000000000E+00  0.14999999963E+04  0.15000000000E+04  0.10566000000E+00 0.  1.
        994   -1    0    0    0    0 -0.00000000000E+00 -0.00000000000E+00  0.11368683772E-12  0.17120000000E+03  0.17120000000E+03 0.  0.
         13    1    1    2    0    0 -0.93631726835E+01  0.55912195520E+01  0.44603698924E+02  0.45917663927E+02  0.10566000000E+00 0.  1.
        994    1    1    2    0    0  0.73407901760E+01 -0.38751100306E+01  0.15589810030E+01  0.17140820896E+03  0.17120000000E+03 0.  0.
        998    1    1    2    0    0  0.20223825075E+01 -0.17161095214E+01  0.14538373164E+04  0.14538741271E+04  0.10000000000E+02 0.  1.
</event>
<event>
 5    1  0.9130022E-009  0.3752405E+03  0.7957747E-01  0.3472148E+00
         13   -1    0    0    0    0  0.00000000000E+00  0.00000000000E+00  0.14999999963E+04  0.15000000000E+04  0.10566000000E+00 0.  1.
        994   -1    0    0    0    0 -0.00000000000E+00 -0.00000000000E+00  0.11368683772E-12  0.17120000000E+03  0.17120000000E+03 0.  0.
         13    1    1    2    0    0  0.18359079168E+02  0.29853542866E+01  0.22778708751E+02  0.29408312847E+02  0.10566000000E+00 0.  1.
        994    1    1    2    0    0 -0.29992683092E+02  0.16147290394E+02  0.10506322735E+02  0.17487172111E+03  0.17120000000E+03 0.  0.
        998    1    1    2    0    0  0.11633603924E+02 -0.19132644680E+02  0.14667149648E+04  0.14669199660E+04  0.10000000000E+02 0.  1.
</event>
<event>
 5    1  0.9130022E-009  0.3732035E+03  0.7957747E-01  0.3481297E+00
         13   -1    0    0    0    0  0.00000000000E+00  0.00000000000E+00  0.14999999963E+04  0.15000000000E+04  0.10566000000E+00 0.  1.
        994   -1    0    0    0    0 -0.00000000000E+00 -0.00000000000E+00  0.11368683772E-12  0.17120000000E+03  0.17120000000E+03 0.  0.
         13    1    1    2    0    0 -0.13349602705E+02  0.38491019721E+01  0.92682668671E+01  0.16701479369E+02  0.10566000000E+00 0.  1.
        994    1    1    2    0    0  0.63985634175E+01 -0.13844371425E+02  0.84000807307E+01  0.17208314732E+03  0.17120000000E+03 0.  0.
        998    1    1    2    0    0  0.69510392873E+01  0.99952694524E+01  0.14823316487E+04  0.14824153733E+04  0.10000000000E+02 0.  1.
</event>
<event>
 5    1  0.9130022E-009  0.3850834E+03  0.7957747E-01  0.3429318E+00
         13   -1    0    0    0    0  0.00000000000E+00  0.00000000000E+00  0.14999999963E+04  0.15000000000E+04  0.10566000000E+00 0.  1.
        994   -1    0    0    0    0 -0.00000000000E+00 -0.00000000000E+00  0.11368683772E-12  0.17120000000E+03  0.17120000000E+03 0.  0.
         13    1    1    2    0    0  0.12807878605E+02  0.46086327293E+01  0.58237559828E+02  0.59807238598E+02  0.10566000000E+00 0.  1.
        994    1    1    2    0    0 -0.11034382923E+02  0.29420593722E+01  0.20176137537E+01  0.17159231942E+03  0.17120000000E+03 0.  0.
        998    1    1    2    0    0 -0.17734956827E+01 -0.75506921015E+01  0.14397448227E+04  0.14398004420E+04  0.10000000000E+02 0.  1.
</event>
<event>
 5    1  0.9130022E-009  0.3822437E+03  0.7957747E-01  0.3441447E+00
         13   -1    0    0    0    0  0.00000000000E+00  0.00000000000E+00  0.14999999963E+04  0.15000000000E+04  0.10566000000E+00 0. -1.
        994   -1    0    0    0    0 -0.00000000000E+00 -0.00000000000E+00  0.11368683772E-12  0.17120000000E+03  0.17120000000E+03 0.  0.
         13    1    1    2    0    0  0.12851556597E+02 -0.91334426423E+00  0.23625375583E+02  0.26910337051E+02  0.10566000000E+00 0. -1.
        994    1    1    2    0    0 -0.43507152004E+02  0.23121893389E+02  0.11102209042E+02  0.17849423877E+03  0.17120000000E+03 0.  0.
        998    1    1    2    0    0  0.30655595407E+02 -0.22208549125E+02  0.14652724117E+04  0.14657954242E+04  0.10000000000E+02 0. -1.
</event>
<event>
 5    1  0.9130022E-009  0.3778416E+03  0.7957747E-01  0.3460611E+00
         13   -1    0    0    0    0  0.00000000000E+00  0.00000000000E+00  0.14999999963E+04  0.15000000000E+04  0.10566000000E+00 0. -1.
        994   -1    0    0    0    0 -0.00000000000E+00 -0.00000000000E+00  0.11368683772E-12  0.17120000000E+03  0.17120000000E+03 0.  0.
         13    1    1    2    0    0  0.35153633687E+01 -0.13062373804E+02  0.15734425349E+02  0.20750101063E+02  0.10566000000E+00 0. -1.
        994    1    1    2    0    0 -0.75931490914E+01 -0.61422250720E+01  0.55478741699E+01  0.17156806740E+03  0.17120000000E+03 0.  0.
        998    1    1    2    0    0  0.40777857227E+01  0.19204598876E+02  0.14787176968E+04  0.14788818315E+04  0.10000000000E+02 0. -1.
</event>
<event>
 5    1  0.9130022E-009  0.3703144E+03  0.7957747E-01  0.3494447E+00
         13   -1    0    0    0    0  0.00000000000E+00  0.00000000000E+00  0.14999999963E+04  0.15000000000E+04  0.10566000000E+00 0.  1.
        994   -1    0    0    0    0 -0.00000000000E+00 -0.00000000000E+00  0.11368683772E-12  0.17120000000E+03  0.17120000000E+03 0.  0.
         13    1    1    2    0    0  0.32187579694E+01 -0.28493091990E+02  0.44710433618E+02  0.53115447210E+02  0.10566000000E+00 0.  1.
        994    1    1    2    0    0 -0.33933983935E+01 -0.74683746626E+01  0.93372731151E+01  0.17165056493E+03  0.17120000000E+03 0.  0.
        998    1    1    2    0    0  0.17464042409E+00  0.35961466653E+02  0.14459522895E+04  0.14464339879E+04  0.10000000000E+02 0.  1.
</event>
<event>
 5    1  0.9130022E-009  0.3841681E+03  0.7957747E-01  0.3433208E+00
         13   -1    0    0    0    0  0.00000000000E+00  0.00000000000E+00  0.14999999963E+04  0.15000000000E+04  0.10566000000E+00 0. -1.
        994   -1    0    0    0    0 -0.00000000000E+00 -0.00000000000E+00  0.11368683772E-12  0.17120000000E+03  0.17120000000E+03 0.  0.
         13    1    1    2    0    0  0.66418440670E+01 -0.18534122080E+02  0.91325086850E+02  0.93423286316E+02  0.10566000000E+00 0. -1.
        994    1    1    2    0    0 -0.13841575697E+02  0.13761692438E+02  0.33009974121E+01  0.17234067999E+03  0.17120000000E+03 0.  0.
        998    1    1    2    0    0  0.71997316299E+01  0.47724296423E+01  0.14053739120E+04  0.14054360337E+04  0.10000000000E+02 0. -1.
</event>
<event>
 5    1  0.9130022E-009  0.3733414E+03  0.7957747E-01  0.3480674E+00
         13   -1    0    0    0    0  0.00000000000E+00  0.00000000000E+00  0.14999999963E+04  0.15000000000E+04  0.10566000000E+00 0.  1.
        994   -1    0    0    0    0 -0.00000000000E+00 -0.00000000000E+00  0.11368683772E-12  0.17120000000E+03  0.17120000000E+03 0.  0.
         13    1    1    2    0    0  0.13157574932E+02 -0.49599664273E+00  0.80532191578E+01  0.15434807858E+02  0.10566000000E+00 0.  1.
        994    1    1    2    0    0 -0.11705139428E+02  0.22018565818E+01  0.80179784542E+01  0.17180100826E+03  0.17120000000E+03 0.  0.
        998    1    1    2    0    0 -0.14524355036E+01 -0.17058599391E+01  0.14839287987E+04  0.14839641839E+04  0.10000000000E+02 0.  1.
</event>
<event>
 5    1  0.9130022E-009  0.3726211E+03  0.7957747E-01  0.3483931E+00
         13   -1    0    0    0    0  0.00000000000E+00  0.00000000000E+00  0.14999999963E+04  0.15000000000E+04  0.10566000000E+00 0.  1.
        994   -1    0    0    0    0 -0.00000000000E+00 -0.00000000000E+00  0.11368683772E-12  0.17120000000E+03  0.17120000000E+03 0.  0.
         13    1    1    2    0    0 -0.67642379494E+02  0.51316802229E+02  0.24121257429E+03  0.25571942213E+03  0.10566000000E+00 0.  1.
        994    1    1    2    0    0  0.59190442342E+02 -0.62834991508E+02  0.39112244406E+02  0.19568074071E+03  0.17120000000E+03 0.  0.
        998    1    1    2    0    0  0.84519371520E+01  0.11518189279E+02  0.12196751776E+04  0.12197998372E+04  0.10000000000E+02 0.  1.
</event>
<event>
 5    1  0.9130022E-009  0.3848882E+03  0.7957747E-01  0.3430147E+00
         13   -1    0    0    0    0  0.00000000000E+00  0.00000000000E+00  0.14999999963E+04  0.15000000000E+04  0.10566000000E+00 0. -1.
        994   -1    0    0    0    0 -0.00000000000E+00 -0.00000000000E+00  0.11368683772E-12  0.17120000000E+03  0.17120000000E+03 0.  0.
         13    1    1    2    0    0 -0.34662108725E+01  0.16781628295E+02  0.86770893907E+02  0.88446802427E+02  0.10566000000E+00 0. -1.
        994    1    1    2    0    0 -0.13301575358E+02 -0.14930796762E+02  0.30022596375E+01  0.17239000598E+03  0.17120000000E+03 0.  0.
        998    1    1    2    0    0  0.16767786230E+02 -0.18508315331E+01  0.14102268427E+04  0.14103631916E+04  0.10000000000E+02 0. -1.
</event>
<event>
 5    1  0.9130022E-009  0.3841256E+03  0.7957747E-01  0.3433389E+00
         13   -1    0    0    0    0  0.00000000000E+00  0.00000000000E+00  0.14999999963E+04  0.15000000000E+04  0.10566000000E+00 0.  1.
        994   -1    0    0    0    0 -0.00000000000E+00 -0.00000000000E+00  0.11368683772E-12  0.17120000000E+03  0.17120000000E+03 0.  0.
         13    1    1    2    0    0 -0.10054804710E+02  0.29899983235E+02  0.16276785378E+03  0.16579654244E+03  0.10566000000E+00 0.  1.
        994    1    1    2    0    0  0.28545995494E+02 -0.58956827480E+02  0.16346533333E+02  0.18403105857E+03  0.17120000000E+03 0.  0.
        998    1    1    2    0    0 -0.18491190784E+02  0.29056844245E+02  0.13208856092E+04  0.13213723990E+04  0.10000000000E+02 0.  1.
</event>
<event>
 5    1  0.9130022E-009  0.3822427E+03  0.7957747E-01  0.3441451E+00
         13   -1    0    0    0    0  0.00000000000E+00  0.00000000000E+00  0.14999999963E+04  0.15000000000E+04  0.10566000000E+00 0.  1.
        994   -1    0    0    0    0 -0.00000000000E+00 -0.00000000000E+00  0.11368683772E-12  0.17120000000E+03  0.17120000000E+03 0.  0.
         13    1    1    2    0    0  0.21732677828E+02  0.29826142854E+01  0.76192568336E+02  0.79287602482E+02  0.10566000000E+00 0.  1.
        994    1    1    2    0    0 -0.20654627879E+02 -0.47468082272E+01  0.44971435126E+01  0.17256537932E+03  0.17120000000E+03 0.  0.
        998    1    1    2    0    0 -0.10780499491E+01  0.17641939419E+01  0.14193102844E+04  0.14193470182E+04  0.10000000000E+02 0.  1.
</event>
<event>
 5    1  0.9130022E-009  0.3760542E+03  0.7957747E-01  0.3468521E+00
         13   -1    0    0    0    0  0.00000000000E+00  0.00000000000E+00  0.14999999963E+04  0.15000000000E+04  0.10566000000E+00 0. -1.
        994   -1    0    0    0    0 -0.00000000000E+00 -0.00000000000E+00  0.11368683772E-12  0.17120000000E+03  0.17120000000E+03 0.  0.
         13    1    1    2    0    0  0.47192352520E+02 -0.71074835424E+02  0.40883200010E+03  0.41763903773E+03  0.10566000000E+00 0. -1.
        994    1    1    2    0    0 -0.47841227485E+02  0.75743867586E+02  0.33827076994E+02  0.19616224831E+03  0.17120000000E+03 0.  0.
        998    1    1    2    0    0  0.64887496499E+00 -0.46690321628E+01  0.10573409192E+04  0.10573987140E+04  0.10000000000E+02 0.  0.
</event>
<event>
 5    1  0.9130022E-009  0.3807597E+03  0.7957747E-01  0.3447857E+00
         13   -1    0    0    0    0  0.00000000000E+00  0.00000000000E+00  0.14999999963E+04  0.15000000000E+04  0.10566000000E+00 0. -1.
        994   -1    0    0    0    0 -0.00000000000E+00 -0.00000000000E+00  0.11368683772E-12  0.17120000000E+03  0.17120000000E+03 0.  0.
         13    1    1    2    0    0  0.16298450093E+02  0.22004245158E+02  0.95800330524E+02  0.99637045184E+02  0.10566000000E+00 0. -1.
        994    1    1    2    0    0 -0.18471815164E+02 -0.14276120979E+02  0.55696628917E+01  0.17287416444E+03  0.17120000000E+03 0.  0.
        998    1    1    2    0    0  0.21733650715E+01 -0.77281241793E+01  0.13986300029E+04  0.13986887904E+04  0.10000000000E+02 0. -1.
</event>
<event>
 5    1  0.9130022E-009  0.3298678E+03  0.7957747E-01  0.3703453E+00
         13   -1    0    0    0    0  0.00000000000E+00  0.00000000000E+00  0.14999999963E+04  0.15000000000E+04  0.10566000000E+00 0. -1.
        994   -1    0    0    0    0 -0.00000000000E+00 -0.00000000000E+00  0.11368683772E-12  0.17120000000E+03  0.17120000000E+03 0.  0.
         13    1    1    2    0    0 -0.16077142451E+03 -0.26753939059E+03  0.71191261997E+03  0.77733156767E+03  0.10566000000E+00 0. -1.
        994    1    1    2    0    0  0.10690251725E+03  0.20526982931E+03  0.37617563889E+03  0.47368914101E+03  0.17120000000E+03 0.  0.
        998    1    1    2    0    0  0.53868907266E+02  0.62269561278E+02  0.41191173742E+03  0.42017929132E+03  0.10000000000E+02 0. -1.
</event>
<event>
 5    1  0.9130022E-009  0.3842025E+03  0.7957747E-01  0.3433061E+00
         13   -1    0    0    0    0  0.00000000000E+00  0.00000000000E+00  0.14999999963E+04  0.15000000000E+04  0.10566000000E+00 0.  1.
        994   -1    0    0    0    0 -0.00000000000E+00 -0.00000000000E+00  0.11368683772E-12  0.17120000000E+03  0.17120000000E+03 0.  0.
         13    1    1    2    0    0 -0.27715304930E+01 -0.19731553455E+02  0.10074379924E+03  0.10269537396E+03  0.10566000000E+00 0.  1.
        994    1    1    2    0    0  0.24871860884E+00  0.81929300590E+01  0.22481406066E+01  0.17141085176E+03  0.17120000000E+03 0.  0.
        998    1    1    2    0    0  0.25228118841E+01  0.11538623396E+02  0.13970080564E+04  0.13970937743E+04  0.10000000000E+02 0.  1.
</event>
<event>
 5    1  0.9130022E-009  0.3744278E+03  0.7957747E-01  0.3475786E+00
         13   -1    0    0    0    0  0.00000000000E+00  0.00000000000E+00  0.14999999963E+04  0.15000000000E+04  0.10566000000E+00 0.  1.
        994   -1    0    0    0    0 -0.00000000000E+00 -0.00000000000E+00  0.11368683772E-12  0.17120000000E+03  0.17120000000E+03 0.  0.
         13    1    1    2    0    0 -0.31121501917E+02 -0.46487495392E+02  0.10488088982E+03  0.11886819306E+03  0.10566000000E+00 0.  1.
        994    1    1    2    0    0  0.32366480536E+02  0.48356107423E+02  0.25422607597E+02  0.18259696373E+03  0.17120000000E+03 0.  0.
        998    1    1    2    0    0 -0.12449786194E+01 -0.18686120315E+01  0.13696964989E+04  0.13697348432E+04  0.10000000000E+02 0.  1.
</event>
<event>
 5    1  0.9130022E-009  0.3799784E+03  0.7957747E-01  0.3451252E+00
         13   -1    0    0    0    0  0.00000000000E+00  0.00000000000E+00  0.14999999963E+04  0.15000000000E+04  0.10566000000E+00 0.  1.
        994   -1    0    0    0    0 -0.00000000000E+00 -0.00000000000E+00  0.11368683772E-12  0.17120000000E+03  0.17120000000E+03 0.  0.
         13    1    1    2    0    0 -0.13406988067E+02  0.11006546493E+01  0.21511702666E+02  0.25371702452E+02  0.10566000000E+00 0.  1.
        994    1    1    2    0    0 -0.15183205322E+02  0.16489042113E+01  0.49242029951E+01  0.17195038931E+03  0.17120000000E+03 0.  0.
        998    1    1    2    0    0  0.28590193389E+02 -0.27495588606E+01  0.14735640906E+04  0.14738779082E+04  0.10000000000E+02 0.  1.
</event>
<event>
 5    1  0.9130022E-009  0.3811774E+03  0.7957747E-01  0.3446048E+00
         13   -1    0    0    0    0  0.00000000000E+00  0.00000000000E+00  0.14999999963E+04  0.15000000000E+04  0.10566000000E+00 0.  1.
        994   -1    0    0    0    0 -0.00000000000E+00 -0.00000000000E+00  0.11368683772E-12  0.17120000000E+03  0.17120000000E+03 0.  0.
         13    1    1    2    0    0  0.74261409383E+01  0.14718692338E+02  0.38964345424E+02  0.42308614391E+02  0.10566000000E+00 0.  1.
        994    1    1    2    0    0 -0.48157816416E+01  0.55450682995E+01  0.37196110354E+01  0.17139782683E+03  0.17120000000E+03 0.  0.
        998    1    1    2    0    0 -0.26103592967E+01 -0.20263760637E+02  0.14573160398E+04  0.14574935588E+04  0.10000000000E+02 0.  1.
</event>
<event>
 5    1  0.9130022E-009  0.3820641E+03  0.7957747E-01  0.3442220E+00
         13   -1    0    0    0    0  0.00000000000E+00  0.00000000000E+00  0.14999999963E+04  0.15000000000E+04  0.10566000000E+00 0. -1.
        994   -1    0    0    0    0 -0.00000000000E+00 -0.00000000000E+00  0.11368683772E-12  0.17120000000E+03  0.17120000000E+03 0.  0.
         13    1    1    2    0    0 -0.27043434432E+02  0.41681594983E+02  0.60757327065E+02  0.78486729212E+02  0.10566000000E+00 0. -1.
        994    1    1    2    0    0  0.25428000103E+02 -0.50830275660E+02  0.29356336067E+02  0.18276086720E+03  0.17120000000E+03 0.  0.
        998    1    1    2    0    0  0.16154343289E+01  0.91486806766E+01  0.14098863331E+04  0.14099524036E+04  0.10000000000E+02 0. -1.
</event>
<event>
 5    1  0.9130022E-009  0.3786643E+03  0.7957747E-01  0.3456995E+00
         13   -1    0    0    0    0  0.00000000000E+00  0.00000000000E+00  0.14999999963E+04  0.15000000000E+04  0.10566000000E+00 0.  1.
        994   -1    0    0    0    0 -0.00000000000E+00 -0.00000000000E+00  0.11368683772E-12  0.17120000000E+03  0.17120000000E+03 0.  0.
         13    1    1    2    0    0  0.26111368487E+02 -0.10895308330E+01  0.15221737755E+02  0.30244059020E+02  0.10566000000E+00 0.  1.
        994    1    1    2    0    0 -0.21134139402E+02  0.12072880898E+02  0.17734486404E+02  0.17382853134E+03  0.17120000000E+03 0.  0.
        998    1    1    2    0    0 -0.49772290850E+01 -0.10983350065E+02  0.14670437721E+04  0.14671274096E+04  0.10000000000E+02 0.  1.
</event>
<event>
 5    1  0.9130022E-009  0.3810069E+03  0.7957747E-01  0.3446786E+00
         13   -1    0    0    0    0  0.00000000000E+00  0.00000000000E+00  0.14999999963E+04  0.15000000000E+04  0.10566000000E+00 0.  1.
        994   -1    0    0    0    0 -0.00000000000E+00 -0.00000000000E+00  0.11368683772E-12  0.17120000000E+03  0.17120000000E+03 0.  0.
         13    1    1    2    0    0 -0.19653077214E+02  0.18301759910E+02  0.97855544141E+02  0.10147372341E+03  0.10566000000E+00 0.  1.
        994    1    1    2    0    0  0.12340956763E+02 -0.11902604774E+02  0.46057843529E+01  0.17211805386E+03  0.17120000000E+03 0.  0.
        998    1    1    2    0    0  0.73121204515E+01 -0.63991551351E+01  0.13975386678E+04  0.13976082227E+04  0.10000000000E+02 0.  0.
</event>
<event>
 5    1  0.9130022E-009  0.3702267E+03  0.7957747E-01  0.3494850E+00
         13   -1    0    0    0    0  0.00000000000E+00  0.00000000000E+00  0.14999999963E+04  0.15000000000E+04  0.10566000000E+00 0.  1.
        994   -1    0    0    0    0 -0.00000000000E+00 -0.00000000000E+00  0.11368683772E-12  0.17120000000E+03  0.17120000000E+03 0.  0.
         13    1    1    2    0    0 -0.16860660994E+02  0.13766739495E+02  0.21646226266E+02  0.30698131556E+02  0.10566000000E+00 0.  1.
        994    1    1    2    0    0  0.20803337301E+02 -0.10107212487E+02  0.11000996355E+02  0.17310516026E+03  0.17120000000E+03 0.  0.
        998    1    1    2    0    0 -0.39426763075E+01 -0.36595270078E+01  0.14673527737E+04  0.14673967082E+04  0.10000000000E+02 0.  1.
</event>
<event>
 5    1  0.9130022E-009  0.3722591E+03  0.7957747E-01  0.3485573E+00
         13   -1    0    0    0    0  0.00000000000E+00  0.00000000000E+00  0.14999999963E+04  0.15000000000E+04  0.10566000000E+00 0.  1.
        994   -1    0    0    0    0 -0.00000000000E+00 -0.00000000000E+00  0.11368683772E-12  0.17120000000E+03  0.17120000000E+03 0.  0.
         13    1    1    2    0    0  0.28920684639E+02 -0.50716287768E+01  0.49242816846E+02  0.57332308460E+02  0.10566000000E+00 0.  1.
        994    1    1    2    0    0 -0.25285462490E+02  0.30607274233E+01  0.10321958618E+02  0.17339176882E+03  0.17120000000E+03 0.  0.
        998    1    1    2    0    0 -0.36352221487E+01  0.20109013535E+01  0.14404352208E+04  0.14404759227E+04  0.10000000000E+02 0.  1.
</event>
<event>
 5    1  0.9130022E-009  0.3722889E+03  0.7957747E-01  0.3485437E+00
         13   -1    0    0    0    0  0.00000000000E+00  0.00000000000E+00  0.14999999963E+04  0.15000000000E+04  0.10566000000E+00 0. -1.
        994   -1    0    0    0    0 -0.00000000000E+00 -0.00000000000E+00  0.11368683772E-12  0.17120000000E+03  0.17120000000E+03 0.  0.
         13    1    1    2    0    0 -0.40914622501E+02 -0.21962645950E+02  0.13561814365E+03  0.14334802476E+03  0.10566000000E+00 0. -1.
        994    1    1    2    0    0  0.13856008327E+02  0.16342494017E+02  0.96540330708E+01  0.17280540047E+03  0.17120000000E+03 0.  0.
        998    1    1    2    0    0  0.27058614174E+02  0.56201519327E+01  0.13547278196E+04  0.13550465748E+04  0.10000000000E+02 0. -1.
</event>
<event>
 5    1  0.9130022E-009  0.3862065E+03  0.7957747E-01  0.3424572E+00
         13   -1    0    0    0    0  0.00000000000E+00  0.00000000000E+00  0.14999999963E+04  0.15000000000E+04  0.10566000000E+00 0.  1.
        994   -1    0    0    0    0 -0.00000000000E+00 -0.00000000000E+00  0.11368683772E-12  0.17120000000E+03  0.17120000000E+03 0.  0.
         13    1    1    2    0    0 -0.19673916443E+01 -0.12211350910E+02  0.74189832889E+02  0.75213896250E+02  0.10566000000E+00 0.  1.
        994    1    1    2    0    0  0.13933523797E+01  0.97044355080E+01  0.13472613469E+01  0.17148577962E+03  0.17120000000E+03 0.  0.
        998    1    1    2    0    0  0.57403926463E+00  0.25069154019E+01  0.14244629020E+04  0.14245003241E+04  0.10000000000E+02 0.  1.
</event>
<event>
 5    1  0.9130022E-009  0.3707000E+03  0.7957747E-01  0.3492680E+00
         13   -1    0    0    0    0  0.00000000000E+00  0.00000000000E+00  0.14999999963E+04  0.15000000000E+04  0.10566000000E+00 0.  1.
        994   -1    0    0    0    0 -0.00000000000E+00 -0.00000000000E+00  0.11368683772E-12  0.17120000000E+03  0.17120000000E+03 0.  0.
         13    1    1    2    0    0  0.47746490759E+01 -0.12300548660E+02  0.26173442832E+01  0.13452227557E+02  0.10566000000E+00 0.  1.
        994    1    1    2    0    0  0.84379471535E+01  0.19578952533E+01  0.11572448314E+02  0.17180917864E+03  0.17120000000E+03 0.  0.
        998    1    1    2    0    0 -0.13212596229E+02  0.10342653406E+02  0.14858102037E+04  0.14859385938E+04  0.10000000000E+02 0.  1.
</event>
<event>
 5    1  0.9130022E-009  0.3692304E+03  0.7957747E-01  0.3499435E+00
         13   -1    0    0    0    0  0.00000000000E+00  0.00000000000E+00  0.14999999963E+04  0.15000000000E+04  0.10566000000E+00 0. -1.
        994   -1    0    0    0    0 -0.00000000000E+00 -0.00000000000E+00  0.11368683772E-12  0.17120000000E+03  0.17120000000E+03 0.  0.
         13    1    1    2    0    0 -0.16224372537E+03  0.19127416788E+02  0.69917479091E+03  0.71800716146E+03  0.10566000000E+00 0. -1.
        994    1    1    2    0    0  0.15028581123E+03 -0.26639662538E+02  0.96788750401E+02  0.24894376650E+03  0.17120000000E+03 0.  0.
        998    1    1    2    0    0  0.11957914141E+02  0.75122457501E+01  0.70403645497E+03  0.70424907204E+03  0.10000000000E+02 0. -1.
</event>
<event>
 5    1  0.9130022E-009  0.3776250E+03  0.7957747E-01  0.3461565E+00
         13   -1    0    0    0    0  0.00000000000E+00  0.00000000000E+00  0.14999999963E+04  0.15000000000E+04  0.10566000000E+00 0.  1.
        994   -1    0    0    0    0 -0.00000000000E+00 -0.00000000000E+00  0.11368683772E-12  0.17120000000E+03  0.17120000000E+03 0.  0.
         13    1    1    2    0    0 -0.31810436347E+02 -0.58265772453E+02  0.31905506099E+03  0.32588793658E+03  0.10566000000E+00 0.  1.
        994    1    1    2    0    0  0.31247811658E+02  0.60683937676E+02  0.21199000480E+02  0.18552035912E+03  0.17120000000E+03 0.  0.
        998    1    1    2    0    0  0.56262468928E+00 -0.24181652235E+01  0.11597459348E+04  0.11597917043E+04  0.10000000000E+02 0.  0.
</event>
<event>
 5    1  0.9130022E-009  0.4037979E+03  0.7957747E-01  0.3353661E+00
         13   -1    0    0    0    0  0.00000000000E+00  0.00000000000E+00  0.14999999963E+04  0.15000000000E+04  0.10566000000E+00 0.  1.
        994   -1    0    0    0    0 -0.00000000000E+00 -0.00000000000E+00  0.11368683772E-12  0.17120000000E+03  0.17120000000E+03 0.  0.
         13    1    1    2    0    0 -0.65933509677E+02  0.23999605413E+02  0.67869639444E+02  0.97619198320E+02  0.10566000000E+00 0.  1.
        994    1    1    2    0    0  0.68713727726E+02 -0.31117137745E+02  0.53069474917E+02  0.19446249460E+03  0.17120000000E+03 0.  0.
        998    1    1    2    0    0 -0.27802180492E+01  0.71175323317E+01  0.13790608819E+04  0.13791183071E+04  0.10000000000E+02 0.  1.
</event>
<event>
 5    1  0.9130022E-009  0.3778810E+03  0.7957747E-01  0.3460437E+00
         13   -1    0    0    0    0  0.00000000000E+00  0.00000000000E+00  0.14999999963E+04  0.15000000000E+04  0.10566000000E+00 0.  1.
        994   -1    0    0    0    0 -0.00000000000E+00 -0.00000000000E+00  0.11368683772E-12  0.17120000000E+03  0.17120000000E+03 0.  0.
         13    1    1    2    0    0 -0.24689489432E+02  0.18087908251E+02  0.85991311076E+02  0.91275736414E+02  0.10566000000E+00 0.  1.
        994    1    1    2    0    0  0.28807334768E+02 -0.21923835144E+01  0.80216621389E+01  0.17380580009E+03  0.17120000000E+03 0.  0.
        998    1    1    2    0    0 -0.41178453361E+01 -0.15895524737E+02  0.14059870231E+04  0.14061184635E+04  0.10000000000E+02 0.  1.
</event>
<event>
 5    1  0.9130022E-009  0.3836616E+03  0.7957747E-01  0.3435368E+00
         13   -1    0    0    0    0  0.00000000000E+00  0.00000000000E+00  0.14999999963E+04  0.15000000000E+04  0.10566000000E+00 0. -1.
        994   -1    0    0    0    0 -0.00000000000E+00 -0.00000000000E+00  0.11368683772E-12  0.17120000000E+03  0.17120000000E+03 0.  0.
         13    1    1    2    0    0 -0.16858206117E+02  0.23023089990E+02  0.16807203083E+03  0.17047721401E+03  0.10566000000E+00 0. -1.
        994    1    1    2    0    0  0.24818818912E+02 -0.10439864455E+02  0.46943046509E+01  0.17336793544E+03  0.17120000000E+03 0.  0.
        998    1    1    2    0    0 -0.79606127952E+01 -0.12583225535E+02  0.13272336608E+04  0.13273548506E+04  0.10000000000E+02 0. -1.
</event>
<event>
 5    1  0.9130022E-009  0.3829914E+03  0.7957747E-01  0.3438236E+00
         13   -1    0    0    0    0  0.00000000000E+00  0.00000000000E+00  0.14999999963E+04  0.15000000000E+04  0.10566000000E+00 0.  1.
        994   -1    0    0    0    0 -0.00000000000E+00 -0.00000000000E+00  0.11368683772E-12  0.17120000000E+03  0.17120000000E+03 0.  0.
         13    1    1    2    0    0 -0.59548466887E+01  0.24378577172E+02  0.10607629574E+03  0.10900443526E+03  0.10566000000E+00 0.  1.
        994    1    1    2    0    0  0.19646871532E+02 -0.29720855130E+02  0.68437751786E+01  0.17500173156E+03  0.17120000000E+03 0.  0.
        998    1    1    2    0    0 -0.13692024843E+02  0.53422779582E+01  0.13870799254E+04  0.13871938332E+04  0.10000000000E+02 0.  1.
</event>
<event>
 5    1  0.9130022E-009  0.3835723E+03  0.7957747E-01  0.3435750E+00
         13   -1    0    0    0    0  0.00000000000E+00  0.00000000000E+00  0.14999999963E+04  0.15000000000E+04  0.10566000000E+00 0.  1.
        994   -1    0    0    0    0 -0.00000000000E+00 -0.00000000000E+00  0.11368683772E-12  0.17120000000E+03  0.17120000000E+03 0.  0.
         13    1    1    2    0    0 -0.23741721232E+01  0.11682313944E+02  0.29583170802E+02  0.31894957455E+02  0.10566000000E+00 0.  1.
        994    1    1    2    0    0 -0.76003440869E+00 -0.89232967145E+01  0.26056642123E+01  0.17145387824E+03  0.17120000000E+03 0.  0.
        998    1    1    2    0    0  0.31342065319E+01 -0.27590172291E+01  0.14678111613E+04  0.14678511643E+04  0.10000000000E+02 0.  1.
</event>
<event>
 5    1  0.9130022E-009  0.3790727E+03  0.7957747E-01  0.3455206E+00
         13   -1    0    0    0    0  0.00000000000E+00  0.00000000000E+00  0.14999999963E+04  0.15000000000E+04  0.10566000000E+00 0. -1.
        994   -1    0    0    0    0 -0.00000000000E+00 -0.00000000000E+00  0.11368683772E-12  0.17120000000E+03  0.17120000000E+03 0.  0.
         13    1    1    2    0    0  0.57344253410E+02 -0.15843586856E+02  0.34930274653E+03  0.35433289791E+03  0.10566000000E+00 0. -1.
        994    1    1    2    0    0 -0.44330734070E+02  0.29612237717E+01  0.11249757399E+02  0.17722860906E+03  0.17120000000E+03 0.  0.
        998    1    1    2    0    0 -0.13013519340E+02  0.12882363085E+02  0.11394474923E+04  0.11396384930E+04  0.10000000000E+02 0. -1.
</event>
<event>
 5    1  0.9130022E-009  0.3826201E+03  0.7957747E-01  0.3439829E+00
         13   -1    0    0    0    0  0.00000000000E+00  0.00000000000E+00  0.14999999963E+04  0.15000000000E+04  0.10566000000E+00 0. -1.
        994   -1    0    0    0    0 -0.00000000000E+00 -0.00000000000E+00  0.11368683772E-12  0.17120000000E+03  0.17120000000E+03 0.  0.
         13    1    1    2    0    0 -0.95775858533E+01 -0.99267571302E+01  0.32400912509E+02  0.35215067135E+02  0.10566000000E+00 0. -1.
        994    1    1    2    0    0  0.82020203804E+01  0.98445143033E+01  0.33606868506E+01  0.17171174047E+03  0.17120000000E+03 0.  0.
        998    1    1    2    0    0  0.13755654729E+01  0.82242826917E-01  0.14642383969E+04  0.14642731924E+04  0.10000000000E+02 0. -1.
</event>
<event>
 5    1  0.9130022E-009  0.3821253E+03  0.7957747E-01  0.3441956E+00
         13   -1    0    0    0    0  0.00000000000E+00  0.00000000000E+00  0.14999999963E+04  0.15000000000E+04  0.10566000000E+00 0.  1.
        994   -1    0    0    0    0 -0.00000000000E+00 -0.00000000000E+00  0.11368683772E-12  0.17120000000E+03  0.17120000000E+03 0.  0.
         13    1    1    2    0    0 -0.13561396327E+02  0.93652056472E+01  0.43262539581E+02  0.46295540198E+02  0.10566000000E+00 0.  1.
        994    1    1    2    0    0  0.18490706707E+02  0.72708283079E+01  0.43756946909E+01  0.17240463417E+03  0.17120000000E+03 0.  0.
        998    1    1    2    0    0 -0.49293103797E+01 -0.16636033955E+02  0.14523617620E+04  0.14524998256E+04  0.10000000000E+02 0.  1.
</event>
<event>
 5    1  0.9130022E-009  0.3692019E+03  0.7957747E-01  0.3499567E+00
         13   -1    0    0    0    0  0.00000000000E+00  0.00000000000E+00  0.14999999963E+04  0.15000000000E+04  0.10566000000E+00 0. -1.
        994   -1    0    0    0    0 -0.00000000000E+00 -0.00000000000E+00  0.11368683772E-12  0.17120000000E+03  0.17120000000E+03 0.  0.
         13    1    1    2    0    0 -0.47553569431E+01 -0.82169435729E+02  0.29027435424E+03  0.30171781764E+03  0.10566000000E+00 0. -1.
        994    1    1    2    0    0  0.41701802046E+02  0.62341835499E+02  0.30395372299E+02  0.18936436678E+03  0.17120000000E+03 0.  0.
        998    1    1    2    0    0 -0.36946445103E+02  0.19827600231E+02  0.11793302697E+04  0.11801178156E+04  0.10000000000E+02 0. -1.
</event>
<event>
 5    1  0.9130022E-009  0.3801438E+03  0.7957747E-01  0.3450533E+00
         13   -1    0    0    0    0  0.00000000000E+00  0.00000000000E+00  0.14999999963E+04  0.15000000000E+04  0.10566000000E+00 0. -1.
        994   -1    0    0    0    0 -0.00000000000E+00 -0.00000000000E+00  0.11368683772E-12  0.17120000000E+03  0.17120000000E+03 0.  0.
         13    1    1    2    0    0 -0.83302669753E-01  0.13357655489E+02  0.20154747955E+02  0.24179721435E+02  0.10566000000E+00 0. -1.
        994    1    1    2    0    0  0.20212917715E+01 -0.11739677694E+02  0.45348703888E+01  0.17167384979E+03  0.17120000000E+03 0.  0.
        998    1    1    2    0    0 -0.19379891018E+01 -0.16179777946E+01  0.14753103779E+04  0.14753464288E+04  0.10000000000E+02 0. -1.
</event>
<event>
 5    1  0.9130022E-009  0.3860519E+03  0.7957747E-01  0.3425223E+00
         13   -1    0    0    0    0  0.00000000000E+00  0.00000000000E+00  0.14999999963E+04  0.15000000000E+04  0.10566000000E+00 0. -1.
        994   -1    0    0    0    0 -0.00000000000E+00 -0.00000000000E+00  0.11368683772E-12  0.17120000000E+03  0.17120000000E+03 0.  0.
         13    1    1    2    0    0 -0.22039603658E+01 -0.10717260510E+02  0.54274747997E+02  0.55366745871E+02  0.10566000000E+00 0. -1.
        994    1    1    2    0    0  0.58083532887E+01  0.74009524749E+01  0.13989304098E+01  0.17146401393E+03  0.17120000000E+03 0.  0.
        998    1    1    2    0    0 -0.36043929229E+01  0.33163080346E+01  0.14443263179E+04  0.14443692402E+04  0.10000000000E+02 0. -1.
</event>
<event>
 5    1  0.9130022E-009  0.3855769E+03  0.7957747E-01  0.3427229E+00
         13   -1    0    0    0    0  0.00000000000E+00  0.00000000000E+00  0.14999999963E+04  0.15000000000E+04  0.10566000000E+00 0.  1.
        994   -1    0    0    0    0 -0.00000000000E+00 -0.00000000000E+00  0.11368683772E-12  0.17120000000E+03  0.17120000000E+03 0.  0.
         13    1    1    2    0    0 -0.16854395763E+02  0.18117926657E+01  0.10049303230E+03  0.10191277620E+03  0.10566000000E+00 0.  1.
        994    1    1    2    0    0  0.18811193542E+02 -0.22719018047E+00  0.25065601999E+01  0.17224876041E+03  0.17120000000E+03 0.  0.
        998    1    1    2    0    0 -0.19567977793E+01 -0.15846024852E+01  0.13970004038E+04  0.13970384634E+04  0.10000000000E+02 0.  1.
</event>
<event>
 5    1  0.9130022E-009  0.3847418E+03  0.7957747E-01  0.3430768E+00
         13   -1    0    0    0    0  0.00000000000E+00  0.00000000000E+00  0.14999999963E+04  0.15000000000E+04  0.10566000000E+00 0. -1.
        994   -1    0    0    0    0 -0.00000000000E+00 -0.00000000000E+00  0.11368683772E-12  0.17120000000E+03  0.17120000000E+03 0.  0.
         13    1    1    2    0    0  0.57020190147E+01 -0.15699986255E+02  0.83450374482E+02  0.85105691669E+02  0.10566000000E+00 0. -1.
        994    1    1    2    0    0 -0.77816283584E+01  0.86123026013E+00  0.19601439604E+01  0.17139013280E+03  0.17120000000E+03 0.  0.
        998    1    1    2    0    0  0.20796093437E+01  0.14838755995E+02  0.14145894778E+04  0.14147041755E+04  0.10000000000E+02 0. -1.
</event>
<event>
 5    1  0.9130022E-009  0.3780246E+03  0.7957747E-01  0.3459805E+00
         13   -1    0    0    0    0  0.00000000000E+00  0.00000000000E+00  0.14999999963E+04  0.15000000000E+04  0.10566000000E+00 0.  1.
        994   -1    0    0    0    0 -0.00000000000E+00 -0.00000000000E+00  0.11368683772E-12  0.17120000000E+03  0.17120000000E+03 0.  0.
         13    1    1    2    0    0 -0.20286155782E+02  0.26540337352E+02  0.10157742104E+03  0.10692942182E+03  0.10566000000E+00 0.  1.
        994    1    1    2    0    0  0.21630139440E+02 -0.22568964647E+02  0.84289254587E+01  0.17423463456E+03  0.17120000000E+03 0.  0.
        998    1    1    2    0    0 -0.13439836580E+01 -0.39713727056E+01  0.13899936498E+04  0.13900359436E+04  0.10000000000E+02 0.  1.
</event>
<event>
 5    1  0.9130022E-009  0.3710622E+03  0.7957747E-01  0.3491023E+00
         13   -1    0    0    0    0  0.00000000000E+00  0.00000000000E+00  0.14999999963E+04  0.15000000000E+04  0.10566000000E+00 0.  1.
        994   -1    0    0    0    0 -0.00000000000E+00 -0.00000000000E+00  0.11368683772E-12  0.17120000000E+03  0.17120000000E+03 0.  0.
         13    1    1    2    0    0  0.60552578347E+02  0.11305116577E+02  0.28269981347E+03  0.28933305394E+03  0.10566000000E+00 0.  1.
        994    1    1    2    0    0  0.73444201574E+01 -0.14415380820E+02  0.96171311452E+01  0.17223145161E+03  0.17120000000E+03 0.  0.
        998    1    1    2    0    0 -0.67896998504E+02  0.31102642432E+01  0.12076830517E+04  0.12096354945E+04  0.10000000000E+02 0.  1.
</event>
<event>
 5    1  0.9130022E-009  0.3983225E+03  0.7957747E-01  0.3375063E+00
         13   -1    0    0    0    0  0.00000000000E+00  0.00000000000E+00  0.14999999963E+04  0.15000000000E+04  0.10566000000E+00 0.  1.
        994   -1    0    0    0    0 -0.00000000000E+00 -0.00000000000E+00  0.11368683772E-12  0.17120000000E+03  0.17120000000E+03 0.  0.
         13    1    1    2    0    0 -0.31864068810E+02 -0.93049232709E+02  0.15240706178E+03  0.18138743681E+03  0.10566000000E+00 0.  1.
        994    1    1    2    0    0  0.35549201063E+02  0.96282094991E+02  0.69039331112E+02  0.21121045607E+03  0.17120000000E+03 0.  0.
        998    1    1    2    0    0 -0.36851322536E+01 -0.32328622829E+01  0.12785536034E+04  0.12786021071E+04  0.10000000000E+02 0.  0.
</event>
<event>
 5    1  0.9130022E-009  0.3814103E+03  0.7957747E-01  0.3445041E+00
         13   -1    0    0    0    0  0.00000000000E+00  0.00000000000E+00  0.14999999963E+04  0.15000000000E+04  0.10566000000E+00 0. -1.
        994   -1    0    0    0    0 -0.00000000000E+00 -0.00000000000E+00  0.11368683772E-12  0.17120000000E+03  0.17120000000E+03 0.  0.
         13    1    1    2    0    0  0.25042846123E+02 -0.12912961092E+02  0.12386205193E+03  0.12702640584E+03  0.10566000000E+00 0. -1.
        994    1    1    2    0    0 -0.92922546435E+01 -0.69226183140E+01  0.38698315528E+01  0.17163532340E+03  0.17120000000E+03 0.  0.
        998    1    1    2    0    0 -0.15750591479E+02  0.19835579406E+02  0.13722681128E+04  0.13725382708E+04  0.10000000000E+02 0. -1.
</event>
<event>
 5    1  0.9130022E-009  0.3746521E+03  0.7957747E-01  0.3474780E+00
         13   -1    0    0    0    0  0.00000000000E+00  0.00000000000E+00  0.14999999963E+04  0.15000000000E+04  0.10566000000E+00 0.  1.
        994   -1    0    0    0    0 -0.00000000000E+00 -0.00000000000E+00  0.11368683772E-12  0.17120000000E+03  0.17120000000E+03 0.  0.
         13    1    1    2    0    0 -0.23417967210E+02  0.18254868796E+02  0.60802129858E+02  0.67664995251E+02  0.10566000000E+00 0.  1.
        994    1    1    2    0    0  0.26116521352E+02 -0.45859122767E+01  0.92539703933E+01  0.17348826833E+03  0.17120000000E+03 0.  0.
        998    1    1    2    0    0 -0.26985541419E+01 -0.13668956519E+02  0.14299438960E+04  0.14300467364E+04  0.10000000000E+02 0.  1.
</event>
<event>
 5    1  0.9130022E-009  0.3711830E+03  0.7957747E-01  0.3490472E+00
         13   -1    0    0    0    0  0.00000000000E+00  0.00000000000E+00  0.14999999963E+04  0.15000000000E+04  0.10566000000E+00 0. -1.
        994   -1    0    0    0    0 -0.00000000000E+00 -0.00000000000E+00  0.11368683772E-12  0.17120000000E+03  0.17120000000E+03 0.  0.
         13    1    1    2    0    0 -0.39707816658E+02  0.60640853482E+02  0.23584049013E+03  0.24672813330E+03  0.10566000000E+00 0. -1.
        994    1    1    2    0    0  0.59787798778E+02 -0.61914348039E+02  0.34611608898E+02  0.19471869670E+03  0.17120000000E+03 0.  0.
        998    1    1    2    0    0 -0.20079982121E+02  0.12734945565E+01  0.12295478973E+04  0.12297531700E+04  0.10000000000E+02 0. -1.
</event>
<event>
 5    1  0.9130022E-009  0.3848175E+03  0.7957747E-01  0.3430446E+00
         13   -1    0    0    0    0  0.00000000000E+00  0.00000000000E+00  0.14999999963E+04  0.15000000000E+04  0.10566000000E+00 0. -1.
        994   -1    0    0    0    0 -0.00000000000E+00 -0.00000000000E+00  0.11368683772E-12  0.17120000000E+03  0.17120000000E+03 0.  0.
         13    1    1    2    0    0 -0.22192904365E+02 -0.52312858935E+00  0.12314625355E+03  0.12513116956E+03  0.10566000000E+00 0. -1.
        994    1    1    2    0    0  0.31919012885E+02 -0.86441007761E+00  0.50829662560E+01  0.17422642490E+03  0.17120000000E+03 0.  0.
        998    1    1    2    0    0 -0.97261085202E+01  0.13875386670E+01  0.13717707765E+04  0.13718424055E+04  0.10000000000E+02 0. -1.
</event>
<event>
 5    1  0.9130022E-009  0.3718310E+03  0.7957747E-01  0.3487518E+00
         13   -1    0    0    0    0  0.00000000000E+00  0.00000000000E+00  0.14999999963E+04  0.15000000000E+04  0.10566000000E+00 0. -1.
        994   -1    0    0    0    0 -0.00000000000E+00 -0.00000000000E+00  0.11368683772E-12  0.17120000000E+03  0.17120000000E+03 0.  0.
         13    1    1    2    0    0 -0.54478043719E+02 -0.34768780893E+02  0.31192527843E+03  0.31855002097E+03  0.10566000000E+00 0. -1.
        994    1    1    2    0    0  0.29934035286E+01  0.63967399483E+01  0.84865799902E+01  0.17155564924E+03  0.17120000000E+03 0.  0.
        998    1    1    2    0    0  0.51484640191E+02  0.28372040945E+02  0.11795881379E+04  0.11810943298E+04  0.10000000000E+02 0. -1.
</event>
<event>
 5    1  0.9130022E-009  0.3850364E+03  0.7957747E-01  0.3429518E+00
         13   -1    0    0    0    0  0.00000000000E+00  0.00000000000E+00  0.14999999963E+04  0.15000000000E+04  0.10566000000E+00 0. -1.
        994   -1    0    0    0    0 -0.00000000000E+00 -0.00000000000E+00  0.11368683772E-12  0.17120000000E+03  0.17120000000E+03 0.  0.
         13    1    1    2    0    0 -0.83510480670E+01 -0.85984666699E+01  0.47649640949E+02  0.49134235310E+02  0.10566000000E+00 0. -1.
        994    1    1    2    0    0  0.20116944265E+01 -0.79246089269E+01  0.18319226881E+01  0.17140490740E+03  0.17120000000E+03 0.  0.
        998    1    1    2    0    0  0.63393536406E+01  0.16523075597E+02  0.14505184326E+04  0.14506608573E+04  0.10000000000E+02 0. -1.
</event>
<event>
 5    1  0.9130022E-009  0.3684362E+03  0.7957747E-01  0.3503109E+00
         13   -1    0    0    0    0  0.00000000000E+00  0.00000000000E+00  0.14999999963E+04  0.15000000000E+04  0.10566000000E+00 0. -1.
        994   -1    0    0    0    0 -0.00000000000E+00 -0.00000000000E+00  0.11368683772E-12  0.17120000000E+03  0.17120000000E+03 0.  0.
         13    1    1    2    0    0  0.63165403430E+02 -0.80204972811E+02  0.38631368099E+03  0.39957599670E+03  0.10566000000E+00 0. -1.
        994    1    1    2    0    0 -0.54345273660E+02  0.82453608452E+02  0.44801866423E+02  0.20265402427E+03  0.17120000000E+03 0.  0.
        998    1    1    2    0    0 -0.88201297703E+01 -0.22486356413E+01  0.10688844489E+04  0.10689699790E+04  0.10000000000E+02 0. -1.
</event>
<event>
 5    1  0.9130022E-009  0.3845924E+03  0.7957747E-01  0.3431403E+00
         13   -1    0    0    0    0  0.00000000000E+00  0.00000000000E+00  0.14999999963E+04  0.15000000000E+04  0.10566000000E+00 0. -1.
        994   -1    0    0    0    0 -0.00000000000E+00 -0.00000000000E+00  0.11368683772E-12  0.17120000000E+03  0.17120000000E+03 0.  0.
         13    1    1    2    0    0  0.87526038484E+01 -0.62888788242E+01  0.30951942364E+02  0.32774867980E+02  0.10566000000E+00 0. -1.
        994    1    1    2    0    0 -0.73656480809E+01  0.70390931668E+01  0.21745312500E+01  0.17151667613E+03  0.17120000000E+03 0.  0.
        998    1    1    2    0    0 -0.13869557675E+01 -0.75021434263E+00  0.14668735227E+04  0.14669084559E+04  0.10000000000E+02 0. -1.
</event>
<event>
 5    1  0.9130022E-009  0.3841848E+03  0.7957747E-01  0.3433137E+00
         13   -1    0    0    0    0  0.00000000000E+00  0.00000000000E+00  0.14999999963E+04  0.15000000000E+04  0.10566000000E+00 0. -1.
        994   -1    0    0    0    0 -0.00000000000E+00 -0.00000000000E+00  0.11368683772E-12  0.17120000000E+03  0.17120000000E+03 0.  0.
         13    1    1    2    0    0  0.28015752650E+02 -0.48900959765E+01  0.17190112506E+03  0.17423777833E+03  0.10566000000E+00 0. -1.
        994    1    1    2    0    0 -0.31989820014E+02  0.56709481994E+01  0.55235879080E+01  0.17434293293E+03  0.17120000000E+03 0.  0.
        998    1    1    2    0    0  0.39740673640E+01 -0.78085222285E+00  0.13225752833E+04  0.13226192887E+04  0.10000000000E+02 0. -1.
</event>
<event>
 5    1  0.9321858E-009  0.3844695E+03  0.7957747E-01  0.3431925E+00
         13   -1    0    0    0    0  0.00000000000E+00  0.00000000000E+00  0.14999999963E+04  0.15000000000E+04  0.10566000000E+00 0. -1.
        994   -1    0    0    0    0 -0.00000000000E+00 -0.00000000000E+00  0.11368683772E-12  0.17120000000E+03  0.17120000000E+03 0.  0.
         13    1    1    2    0    0  0.39595990752E+01  0.11778362748E+02  0.39386699468E+02  0.41300502574E+02  0.10566000000E+00 0. -1.
        994    1    1    2    0    0 -0.27635882568E+01 -0.13777103263E+02  0.25444808798E+01  0.17179452953E+03  0.17120000000E+03 0.  0.
        998    1    1    2    0    0 -0.11960108184E+01  0.19987405153E+01  0.14580688159E+04  0.14581049679E+04  0.10000000000E+02 0. -1.
</event>
<event>
 5    1  0.9130022E-009  0.3879155E+03  0.7957747E-01  0.3417401E+00
         13   -1    0    0    0    0  0.00000000000E+00  0.00000000000E+00  0.14999999963E+04  0.15000000000E+04  0.10566000000E+00 0.  1.
        994   -1    0    0    0    0 -0.00000000000E+00 -0.00000000000E+00  0.11368683772E-12  0.17120000000E+03  0.17120000000E+03 0.  0.
         13    1    1    2    0    0  0.40644155377E+02 -0.15501174413E+02  0.38702808942E+02  0.58225014887E+02  0.10566000000E+00 0.  1.
        994    1    1    2    0    0 -0.35593643698E+02 -0.34422161767E+02  0.29952730605E+02  0.18071634891E+03  0.17120000000E+03 0.  0.
        998    1    1    2    0    0 -0.50505116797E+01  0.49923336181E+02  0.14313444567E+04  0.14322586362E+04  0.10000000000E+02 0.  1.
</event>
<event>
 5    1  0.9130022E-009  0.3740364E+03  0.7957747E-01  0.3477543E+00
         13   -1    0    0    0    0  0.00000000000E+00  0.00000000000E+00  0.14999999963E+04  0.15000000000E+04  0.10566000000E+00 0.  1.
        994   -1    0    0    0    0 -0.00000000000E+00 -0.00000000000E+00  0.11368683772E-12  0.17120000000E+03  0.17120000000E+03 0.  0.
         13    1    1    2    0    0 -0.58012939703E+02 -0.10129711147E+02  0.22890878858E+03  0.23636276542E+03  0.10566000000E+00 0.  1.
        994    1    1    2    0    0  0.41885488027E+02 -0.19544339288E+00  0.13181127039E+02  0.17674166010E+03  0.17120000000E+03 0.  0.
        998    1    1    2    0    0  0.16127451676E+02  0.10325154540E+02  0.12579100807E+04  0.12580955745E+04  0.10000000000E+02 0.  1.
</event>
<event>
 5    1  0.9130022E-009  0.4013446E+03  0.7957747E-01  0.3363179E+00
         13   -1    0    0    0    0  0.00000000000E+00  0.00000000000E+00  0.14999999963E+04  0.15000000000E+04  0.10566000000E+00 0. -1.
        994   -1    0    0    0    0 -0.00000000000E+00 -0.00000000000E+00  0.11368683772E-12  0.17120000000E+03  0.17120000000E+03 0.  0.
         13    1    1    2    0    0 -0.15089555732E+02  0.74158614749E+01 -0.79509914777E+01  0.18598901127E+02  0.10566000000E+00 0. -1.
        994    1    1    2    0    0  0.14041697758E+01 -0.52678878876E+02  0.39596341498E+02  0.18345120941E+03  0.17120000000E+03 0.  0.
        998    1    1    2    0    0  0.13685385957E+02  0.45263017401E+02  0.14683546463E+04  0.14691498895E+04  0.10000000000E+02 0. -1.
</event>
<event>
 5    1  0.9130022E-009  0.3799340E+03  0.7957747E-01  0.3451446E+00
         13   -1    0    0    0    0  0.00000000000E+00  0.00000000000E+00  0.14999999963E+04  0.15000000000E+04  0.10566000000E+00 0.  1.
        994   -1    0    0    0    0 -0.00000000000E+00 -0.00000000000E+00  0.11368683772E-12  0.17120000000E+03  0.17120000000E+03 0.  0.
         13    1    1    2    0    0  0.90428048811E+01  0.19946195462E+02  0.52716462493E+02  0.57084670581E+02  0.10566000000E+00 0.  1.
        994    1    1    2    0    0 -0.28082417239E+02 -0.20359865586E+02  0.81998262115E+01  0.17487087646E+03  0.17120000000E+03 0.  0.
        998    1    1    2    0    0  0.19039612358E+02  0.41367012416E+00  0.14390837076E+04  0.14392444530E+04  0.10000000000E+02 0.  1.
</event>
<event>
 5    1  0.9130022E-009  0.3845946E+03  0.7957747E-01  0.3431393E+00
         13   -1    0    0    0    0  0.00000000000E+00  0.00000000000E+00  0.14999999963E+04  0.15000000000E+04  0.10566000000E+00 0. -1.
        994   -1    0    0    0    0 -0.00000000000E+00 -0.00000000000E+00  0.11368683772E-12  0.17120000000E+03  0.17120000000E+03 0.  0.
         13    1    1    2    0    0 -0.67863931225E+01  0.14107422141E+02  0.65316016598E+02  0.67165971141E+02  0.10566000000E+00 0. -1.
        994    1    1    2    0    0  0.10710215372E+02 -0.10200062857E+02  0.25522059490E+01  0.17185663720E+03  0.17120000000E+03 0.  0.
        998    1    1    2    0    0 -0.39238222494E+01 -0.39073592833E+01  0.14321317737E+04  0.14321773917E+04  0.10000000000E+02 0. -1.
</event>
<event>
 5    1  0.9130022E-009  0.3804584E+03  0.7957747E-01  0.3449165E+00
         13   -1    0    0    0    0  0.00000000000E+00  0.00000000000E+00  0.14999999963E+04  0.15000000000E+04  0.10566000000E+00 0. -1.
        994   -1    0    0    0    0 -0.00000000000E+00 -0.00000000000E+00  0.11368683772E-12  0.17120000000E+03  0.17120000000E+03 0.  0.
         13    1    1    2    0    0  0.16609549776E+02  0.18420834636E+02  0.80965959843E+02  0.84679998286E+02  0.10566000000E+00 0. -1.
        994    1    1    2    0    0 -0.13600594862E+02  0.36923939944E+01  0.45651462307E+01  0.17183972333E+03  0.17120000000E+03 0.  0.
        998    1    1    2    0    0 -0.30089549137E+01 -0.22113228630E+02  0.14144688902E+04  0.14146802784E+04  0.10000000000E+02 0. -1.
</event>
<event>
 5    1  0.9130022E-009  0.3706797E+03  0.7957747E-01  0.3492773E+00
         13   -1    0    0    0    0  0.00000000000E+00  0.00000000000E+00  0.14999999963E+04  0.15000000000E+04  0.10566000000E+00 0.  1.
        994   -1    0    0    0    0 -0.00000000000E+00 -0.00000000000E+00  0.11368683772E-12  0.17120000000E+03  0.17120000000E+03 0.  0.
         13    1    1    2    0    0 -0.60359276357E+02 -0.36257783694E+02  0.18639803501E+03  0.19925387761E+03  0.10566000000E+00 0.  1.
        994    1    1    2    0    0  0.64440787449E+02  0.35745315901E+02  0.30579351361E+02  0.18887794849E+03  0.17120000000E+03 0.  0.
        998    1    1    2    0    0 -0.40815110924E+01  0.51246779336E+00  0.12830226099E+04  0.12830681739E+04  0.10000000000E+02 0.  0.
</event>
<event>
 5    1  0.9130022E-009  0.3851305E+03  0.7957747E-01  0.3429119E+00
         13   -1    0    0    0    0  0.00000000000E+00  0.00000000000E+00  0.14999999963E+04  0.15000000000E+04  0.10566000000E+00 0. -1.
        994   -1    0    0    0    0 -0.00000000000E+00 -0.00000000000E+00  0.11368683772E-12  0.17120000000E+03  0.17120000000E+03 0.  0.
         13    1    1    2    0    0 -0.30479359728E+01 -0.10062443809E+02  0.34610637969E+02  0.36172504942E+02  0.10566000000E+00 0. -1.
        994    1    1    2    0    0 -0.17965351328E+01  0.11636655632E+02  0.20212256689E+01  0.17161632978E+03  0.17120000000E+03 0.  0.
        998    1    1    2    0    0  0.48444711057E+01 -0.15742118229E+01  0.14633681326E+04  0.14634111653E+04  0.10000000000E+02 0. -1.
</event>
<event>
 5    1  0.9130022E-009  0.3790553E+03  0.7957747E-01  0.3455282E+00
         13   -1    0    0    0    0  0.00000000000E+00  0.00000000000E+00  0.14999999963E+04  0.15000000000E+04  0.10566000000E+00 0.  1.
        994   -1    0    0    0    0 -0.00000000000E+00 -0.00000000000E+00  0.11368683772E-12  0.17120000000E+03  0.17120000000E+03 0.  0.
         13    1    1    2    0    0 -0.32378804324E+02 -0.41342229112E+02  0.26156032550E+03  0.26677965049E+03  0.10566000000E+00 0.  1.
        994    1    1    2    0    0  0.30294814517E+01  0.58369156735E+02  0.16152923209E+02  0.18162184104E+03  0.17120000000E+03 0.  0.
        998    1    1    2    0    0  0.29349322872E+02 -0.17026927622E+02  0.12222867476E+04  0.12227985085E+04  0.10000000000E+02 0.  1.
</event>
<event>
 5    1  0.9130022E-009  0.3859707E+03  0.7957747E-01  0.3425566E+00
         13   -1    0    0    0    0  0.00000000000E+00  0.00000000000E+00  0.14999999963E+04  0.15000000000E+04  0.10566000000E+00 0. -1.
        994   -1    0    0    0    0 -0.00000000000E+00 -0.00000000000E+00  0.11368683772E-12  0.17120000000E+03  0.17120000000E+03 0.  0.
         13    1    1    2    0    0 -0.60939433812E+01 -0.93909343535E+01  0.56143705152E+02  0.57249040046E+02  0.10566000000E+00 0. -1.
        994    1    1    2    0    0  0.10361151770E+02 -0.65535252116E+00  0.15023718508E+01  0.17152107764E+03  0.17120000000E+03 0.  0.
        998    1    1    2    0    0 -0.42672083891E+01  0.10046286875E+02  0.14423539193E+04  0.14424298823E+04  0.10000000000E+02 0. -1.
</event>
<event>
 5    1  0.9130022E-009  0.3802865E+03  0.7957747E-01  0.3449912E+00
         13   -1    0    0    0    0  0.00000000000E+00  0.00000000000E+00  0.14999999963E+04  0.15000000000E+04  0.10566000000E+00 0.  1.
        994   -1    0    0    0    0 -0.00000000000E+00 -0.00000000000E+00  0.11368683772E-12  0.17120000000E+03  0.17120000000E+03 0.  0.
         13    1    1    2    0    0  0.20609202384E+01 -0.14082372088E+02  0.23648063958E+02  0.27600773338E+02  0.10566000000E+00 0.  1.
        994    1    1    2    0    0 -0.12200540632E+02  0.99926270472E+01  0.48196677447E+01  0.17199236897E+03  0.17120000000E+03 0.  0.
        998    1    1    2    0    0  0.10139620393E+02  0.40897450407E+01  0.14715322646E+04  0.14716068577E+04  0.10000000000E+02 0.  1.
</event>
<event>
 5    1  0.9130022E-009  0.3839058E+03  0.7957747E-01  0.3434326E+00
         13   -1    0    0    0    0  0.00000000000E+00  0.00000000000E+00  0.14999999963E+04  0.15000000000E+04  0.10566000000E+00 0.  1.
        994   -1    0    0    0    0 -0.00000000000E+00 -0.00000000000E+00  0.11368683772E-12  0.17120000000E+03  0.17120000000E+03 0.  0.
         13    1    1    2    0    0  0.82833117993E+00  0.11748240143E+02  0.31069137013E+02  0.33226641686E+02  0.10566000000E+00 0.  1.
        994    1    1    2    0    0  0.10219053363E+01 -0.98858954549E+01  0.25004109575E+01  0.17150646424E+03  0.17120000000E+03 0.  0.
        998    1    1    2    0    0 -0.18502365163E+01 -0.18623446877E+01  0.14664304483E+04  0.14664668941E+04  0.10000000000E+02 0.  1.
</event>
<event>
 5    1  0.9130022E-009  0.3733763E+03  0.7957747E-01  0.3480516E+00
         13   -1    0    0    0    0  0.00000000000E+00  0.00000000000E+00  0.14999999963E+04  0.15000000000E+04  0.10566000000E+00 0.  1.
        994   -1    0    0    0    0 -0.00000000000E+00 -0.00000000000E+00  0.11368683772E-12  0.17120000000E+03  0.17120000000E+03 0.  0.
         13    1    1    2    0    0 -0.10248850034E+03  0.44559886804E+02  0.35534176564E+03  0.37250135273E+03  0.10566000000E+00 0.  1.
        994    1    1    2    0    0  0.10298723637E+03 -0.51363334089E+02  0.61200361660E+02  0.21517315634E+03  0.17120000000E+03 0.  0.
        998    1    1    2    0    0 -0.49873602861E+00  0.68034472853E+01  0.10834578690E+04  0.10835254909E+04  0.10000000000E+02 0.  0.
</event>
<event>
 5    1  0.9130022E-009  0.3737016E+03  0.7957747E-01  0.3479050E+00
         13   -1    0    0    0    0  0.00000000000E+00  0.00000000000E+00  0.14999999963E+04  0.15000000000E+04  0.10566000000E+00 0.  1.
        994   -1    0    0    0    0 -0.00000000000E+00 -0.00000000000E+00  0.11368683772E-12  0.17120000000E+03  0.17120000000E+03 0.  0.
         13    1    1    2    0    0 -0.16991547657E+02 -0.66423355364E+01  0.20433232237E+02  0.27392726349E+02  0.10566000000E+00 0.  1.
        994    1    1    2    0    0 -0.20296743486E+01 -0.13593391768E+02  0.79921595530E+01  0.17193665837E+03  0.17120000000E+03 0.  0.
        998    1    1    2    0    0  0.19021222005E+02  0.20235727304E+02  0.14715746045E+04  0.14718706153E+04  0.10000000000E+02 0.  1.
</event>
<event>
 5    1  0.9130022E-009  0.3805417E+03  0.7957747E-01  0.3448803E+00
         13   -1    0    0    0    0  0.00000000000E+00  0.00000000000E+00  0.14999999963E+04  0.15000000000E+04  0.10566000000E+00 0. -1.
        994   -1    0    0    0    0 -0.00000000000E+00 -0.00000000000E+00  0.11368683772E-12  0.17120000000E+03  0.17120000000E+03 0.  0.
         13    1    1    2    0    0  0.24884334161E+02 -0.22431884174E+01  0.71180824682E+02  0.75438603827E+02  0.10566000000E+00 0. -1.
        994    1    1    2    0    0 -0.38779588103E+02  0.21813535513E+02  0.10494456260E+02  0.17719836454E+03  0.17120000000E+03 0.  0.
        998    1    1    2    0    0  0.13895253942E+02 -0.19570347096E+02  0.14183247153E+04  0.14185630316E+04  0.10000000000E+02 0. -1.
</event>
<event>
 5    1  0.9130022E-009  0.3781289E+03  0.7957747E-01  0.3459346E+00
         13   -1    0    0    0    0  0.00000000000E+00  0.00000000000E+00  0.14999999963E+04  0.15000000000E+04  0.10566000000E+00 0.  1.
        994   -1    0    0    0    0 -0.00000000000E+00 -0.00000000000E+00  0.11368683772E-12  0.17120000000E+03  0.17120000000E+03 0.  0.
         13    1    1    2    0    0  0.13436525696E+02  0.34584113290E+01  0.16682577627E+02  0.21698396070E+02  0.10566000000E+00 0.  1.
        994    1    1    2    0    0 -0.10227903359E+02 -0.66496947384E+01  0.55814191077E+01  0.17172484004E+03  0.17120000000E+03 0.  0.
        998    1    1    2    0    0 -0.32086223365E+01  0.31912834094E+01  0.14777359995E+04  0.14777767639E+04  0.10000000000E+02 0.  1.
</event>
<event>
 5    1  0.9130022E-009  0.3829137E+03  0.7957747E-01  0.3438569E+00
         13   -1    0    0    0    0  0.00000000000E+00  0.00000000000E+00  0.14999999963E+04  0.15000000000E+04  0.10566000000E+00 0.  1.
        994   -1    0    0    0    0 -0.00000000000E+00 -0.00000000000E+00  0.11368683772E-12  0.17120000000E+03  0.17120000000E+03 0.  0.
         13    1    1    2    0    0  0.17395433437E+02  0.14241518524E+02  0.11458244248E+03  0.11676715824E+03  0.10566000000E+00 0.  1.
        994    1    1    2    0    0  0.12338303366E+02  0.82316919004E+01  0.33982665241E+01  0.17187490421E+03  0.17120000000E+03 0.  0.
        998    1    1    2    0    0 -0.29733736803E+02 -0.22473210424E+02  0.13820192873E+04  0.13825579376E+04  0.10000000000E+02 0.  1.
</event>
<event>
 5    1  0.9130022E-009  0.3837702E+03  0.7957747E-01  0.3434905E+00
         13   -1    0    0    0    0  0.00000000000E+00  0.00000000000E+00  0.14999999963E+04  0.15000000000E+04  0.10566000000E+00 0. -1.
        994   -1    0    0    0    0 -0.00000000000E+00 -0.00000000000E+00  0.11368683772E-12  0.17120000000E+03  0.17120000000E+03 0.  0.
         13    1    1    2    0    0 -0.12766805488E+02 -0.27462278849E+01  0.36612929241E+02  0.38872237415E+02  0.10566000000E+00 0. -1.
        994    1    1    2    0    0  0.13449715317E+02  0.41840480008E+01  0.28973036810E+01  0.17180289715E+03  0.17120000000E+03 0.  0.
        998    1    1    2    0    0 -0.68290982928E+00 -0.14378201159E+01  0.14604897634E+04  0.14605248654E+04  0.10000000000E+02 0. -1.
</event>
<event>
 5    1  0.9130022E-009  0.3842811E+03  0.7957747E-01  0.3432727E+00
         13   -1    0    0    0    0  0.00000000000E+00  0.00000000000E+00  0.14999999963E+04  0.15000000000E+04  0.10566000000E+00 0. -1.
        994   -1    0    0    0    0 -0.00000000000E+00 -0.00000000000E+00  0.11368683772E-12  0.17120000000E+03  0.17120000000E+03 0.  0.
         13    1    1    2    0    0  0.25782736458E+01 -0.16450286691E+02  0.69401996293E+02  0.71371616773E+02  0.10566000000E+00 0. -1.
        994    1    1    2    0    0 -0.10712984403E+02  0.94585453958E+01  0.26609620911E+01  0.17181604359E+03  0.17120000000E+03 0.  0.
        998    1    1    2    0    0  0.81347107567E+01  0.69917412948E+01  0.14279370379E+04  0.14280123396E+04  0.10000000000E+02 0. -1.
</event>
<event>
 5    1  0.9130022E-009  0.3811291E+03  0.7957747E-01  0.3446257E+00
         13   -1    0    0    0    0  0.00000000000E+00  0.00000000000E+00  0.14999999963E+04  0.15000000000E+04  0.10566000000E+00 0. -1.
        994   -1    0    0    0    0 -0.00000000000E+00 -0.00000000000E+00  0.11368683772E-12  0.17120000000E+03  0.17120000000E+03 0.  0.
         13    1    1    2    0    0  0.13278705042E+02  0.92351314670E+01  0.35398157237E+02  0.38918534923E+02  0.10566000000E+00 0. -1.
        994    1    1    2    0    0 -0.39734983475E+01 -0.12821060018E+02  0.41645312997E+01  0.17177587604E+03  0.17120000000E+03 0.  0.
        998    1    1    2    0    0 -0.93052066945E+01  0.35859285506E+01  0.14604373077E+04  0.14605055890E+04  0.10000000000E+02 0. -1.
</event>
<event>
 5    1  0.9130022E-009  0.4203201E+03  0.7957747E-01  0.3292427E+00
         13   -1    0    0    0    0  0.00000000000E+00  0.00000000000E+00  0.14999999963E+04  0.15000000000E+04  0.10566000000E+00 0. -1.
        994   -1    0    0    0    0 -0.00000000000E+00 -0.00000000000E+00  0.11368683772E-12  0.17120000000E+03  0.17120000000E+03 0.  0.
         13    1    1    2    0    0  0.61794562104E+02  0.38597486247E+01  0.29603876106E+02  0.68628465010E+02  0.10566000000E+00 0. -1.
        994    1    1    2    0    0 -0.87983142512E+02 -0.76185155679E+01  0.74736588879E+02  0.20662544099E+03  0.17120000000E+03 0.  0.
        998    1    1    2    0    0  0.26188580408E+02  0.37587669432E+01  0.13956595313E+04  0.13959460940E+04  0.10000000000E+02 0. -1.
</event>
<event>
 5    1  0.9130022E-009  0.3732522E+03  0.7957747E-01  0.3481077E+00
         13   -1    0    0    0    0  0.00000000000E+00  0.00000000000E+00  0.14999999963E+04  0.15000000000E+04  0.10566000000E+00 0. -1.
        994   -1    0    0    0    0 -0.00000000000E+00 -0.00000000000E+00  0.11368683772E-12  0.17120000000E+03  0.17120000000E+03 0.  0.
         13    1    1    2    0    0 -0.64554483323E+01 -0.82939545037E+01  0.37358521066E+01  0.11154830769E+02  0.10566000000E+00 0. -1.
        994    1    1    2    0    0  0.58801024669E+01  0.91765979083E+01  0.79852641194E+01  0.17173232077E+03  0.17120000000E+03 0.  0.
        998    1    1    2    0    0  0.57534586537E+00 -0.88264340456E+00  0.14882788801E+04  0.14883128485E+04  0.10000000000E+02 0. -1.
</event>
<event>
 5    1  0.9130022E-009  0.3820353E+03  0.7957747E-01  0.3442344E+00
         13   -1    0    0    0    0  0.00000000000E+00  0.00000000000E+00  0.14999999963E+04  0.15000000000E+04  0.10566000000E+00 0.  1.
        994   -1    0    0    0    0 -0.00000000000E+00 -0.00000000000E+00  0.11368683772E-12  0.17120000000E+03  0.17120000000E+03 0.  0.
         13    1    1    2    0    0 -0.24339150959E+02  0.23200356528E+02  0.19591439732E+03  0.19877905588E+03  0.10566000000E+00 0.  1.
        994    1    1    2    0    0  0.30731859254E+02  0.14921274050E+02  0.69943568655E+01  0.17471534741E+03  0.17120000000E+03 0.  0.
        998    1    1    2    0    0 -0.63927082947E+01 -0.38121630578E+02  0.12970912421E+04  0.12977055967E+04  0.10000000000E+02 0.  1.
</event>
<event>
 5    1  0.9130022E-009  0.3713152E+03  0.7957747E-01  0.3489868E+00
         13   -1    0    0    0    0  0.00000000000E+00  0.00000000000E+00  0.14999999963E+04  0.15000000000E+04  0.10566000000E+00 0. -1.
        994   -1    0    0    0    0 -0.00000000000E+00 -0.00000000000E+00  0.11368683772E-12  0.17120000000E+03  0.17120000000E+03 0.  0.
         13    1    1    2    0    0 -0.21696049903E+02  0.24235782510E+02  0.73325919136E+02  0.80217163478E+02  0.10566000000E+00 0. -1.
        994    1    1    2    0    0  0.24012197677E+02  0.82650961352E+02  0.34529923371E+02  0.19470367911E+03  0.17120000000E+03 0.  0.
        998    1    1    2    0    0 -0.23161477738E+01 -0.10688674386E+03  0.13921441538E+04  0.13962791574E+04  0.10000000000E+02 0. -1.
</event>
<event>
 5    1  0.9130022E-009  0.3847692E+03  0.7957747E-01  0.3430652E+00
         13   -1    0    0    0    0  0.00000000000E+00  0.00000000000E+00  0.14999999963E+04  0.15000000000E+04  0.10566000000E+00 0.  1.
        994   -1    0    0    0    0 -0.00000000000E+00 -0.00000000000E+00  0.11368683772E-12  0.17120000000E+03  0.17120000000E+03 0.  0.
         13    1    1    2    0    0 -0.15181854892E+02 -0.53624710289E+01  0.75496628173E+02  0.77194538945E+02  0.10566000000E+00 0.  1.
        994    1    1    2    0    0 -0.22966949005E+01  0.34493625005E+02  0.56878368667E+01  0.17474803708E+03  0.17120000000E+03 0.  0.
        998    1    1    2    0    0  0.17478549792E+02 -0.29131153976E+02  0.14188155312E+04  0.14192574240E+04  0.10000000000E+02 0.  1.
</event>
<event>
 5    1  0.9130022E-009  0.3720286E+03  0.7957747E-01  0.3486620E+00
         13   -1    0    0    0    0  0.00000000000E+00  0.00000000000E+00  0.14999999963E+04  0.15000000000E+04  0.10566000000E+00 0. -1.
        994   -1    0    0    0    0 -0.00000000000E+00 -0.00000000000E+00  0.11368683772E-12  0.17120000000E+03  0.17120000000E+03 0.  0.
         13    1    1    2    0    0  0.45867378862E+02 -0.14723737651E+02  0.88155601064E+02  0.10045907653E+03  0.10566000000E+00 0. -1.
        994    1    1    2    0    0 -0.45590183751E+02  0.65466112413E+01  0.19522279908E+02  0.17835885845E+03  0.17120000000E+03 0.  0.
        998    1    1    2    0    0 -0.27719511062E+00  0.81771264100E+01  0.13923221153E+04  0.13923820650E+04  0.10000000000E+02 0. -1.
</event>
<event>
 5    1  0.9130022E-009  0.3687773E+03  0.7957747E-01  0.3501529E+00
         13   -1    0    0    0    0  0.00000000000E+00  0.00000000000E+00  0.14999999963E+04  0.15000000000E+04  0.10566000000E+00 0. -1.
        994   -1    0    0    0    0 -0.00000000000E+00 -0.00000000000E+00  0.11368683772E-12  0.17120000000E+03  0.17120000000E+03 0.  0.
         13    1    1    2    0    0  0.17325061070E+02  0.37767464229E+02  0.85345516087E+02  0.94923165642E+02  0.10566000000E+00 0. -1.
        994    1    1    2    0    0 -0.21939482731E+02 -0.12436055238E+02  0.12121107008E+02  0.17347148932E+03  0.17120000000E+03 0.  0.
        998    1    1    2    0    0  0.46144216617E+01 -0.25331408992E+02  0.14025333732E+04  0.14028053450E+04  0.10000000000E+02 0. -1.
</event>
<event>
 5    1  0.9130022E-009  0.3723321E+03  0.7957747E-01  0.3485241E+00
         13   -1    0    0    0    0  0.00000000000E+00  0.00000000000E+00  0.14999999963E+04  0.15000000000E+04  0.10566000000E+00 0.  1.
        994   -1    0    0    0    0 -0.00000000000E+00 -0.00000000000E+00  0.11368683772E-12  0.17120000000E+03  0.17120000000E+03 0.  0.
         13    1    1    2    0    0 -0.16366800346E+03  0.60811355788E+02  0.10144502830E+04  0.10293661274E+04  0.10566000000E+00 0.  1.
        994    1    1    2    0    0  0.16232925525E+03 -0.14600253333E+02  0.10549748289E+03  0.25884959611E+03  0.17120000000E+03 0.  0.
        998    1    1    2    0    0  0.13387482095E+01 -0.46211102455E+02  0.38005223037E+03  0.38298427650E+03  0.10000000000E+02 0.  1.
</event>
<event>
 5    1  0.9130022E-009  0.3806228E+03  0.7957747E-01  0.3448451E+00
         13   -1    0    0    0    0  0.00000000000E+00  0.00000000000E+00  0.14999999963E+04  0.15000000000E+04  0.10566000000E+00 0. -1.
        994   -1    0    0    0    0 -0.00000000000E+00 -0.00000000000E+00  0.11368683772E-12  0.17120000000E+03  0.17120000000E+03 0.  0.
         13    1    1    2    0    0  0.22138490762E+01  0.14629862482E+02  0.27366055169E+02  0.31110225707E+02  0.10566000000E+00 0. -1.
        994    1    1    2    0    0  0.24082792752E+01 -0.80082278717E+01  0.40524296959E+01  0.17145201576E+03  0.17120000000E+03 0.  0.
        998    1    1    2    0    0 -0.46221283514E+01 -0.66216346101E+01  0.14685815114E+04  0.14686377585E+04  0.10000000000E+02 0. -1.
</event>
<event>
 5    1  0.9130022E-009  0.3819929E+03  0.7957747E-01  0.3442527E+00
         13   -1    0    0    0    0  0.00000000000E+00  0.00000000000E+00  0.14999999963E+04  0.15000000000E+04  0.10566000000E+00 0. -1.
        994   -1    0    0    0    0 -0.00000000000E+00 -0.00000000000E+00  0.11368683772E-12  0.17120000000E+03  0.17120000000E+03 0.  0.
         13    1    1    2    0    0  0.60663205801E+01  0.24725529460E+02  0.88229593513E+02  0.91829322049E+02  0.10566000000E+00 0. -1.
        994    1    1    2    0    0  0.73784954961E+01 -0.47075088572E+02  0.10707942388E+02  0.17802979018E+03  0.17120000000E+03 0.  0.
        998    1    1    2    0    0 -0.13444816076E+02  0.22349559112E+02  0.14010624604E+04  0.14013408878E+04  0.10000000000E+02 0. -1.
</event>
<event>
 5    1  0.9130022E-009  0.3820747E+03  0.7957747E-01  0.3442174E+00
         13   -1    0    0    0    0  0.00000000000E+00  0.00000000000E+00  0.14999999963E+04  0.15000000000E+04  0.10566000000E+00 0. -1.
        994   -1    0    0    0    0 -0.00000000000E+00 -0.00000000000E+00  0.11368683772E-12  0.17120000000E+03  0.17120000000E+03 0.  0.
         13    1    1    2    0    0  0.86211677206E+01 -0.34412339588E+02  0.30730136430E+02  0.46934913421E+02  0.10566000000E+00 0. -1.
        994    1    1    2    0    0  0.70962095417E+01  0.54748601241E+01  0.17765174686E+02  0.17235246362E+03  0.17120000000E+03 0.  0.
        998    1    1    2    0    0 -0.15717377262E+02  0.28937479464E+02  0.14515046852E+04  0.14519126230E+04  0.10000000000E+02 0. -1.
</event>
<event>
 5    1  0.9130022E-009  0.3766084E+03  0.7957747E-01  0.3466060E+00
         13   -1    0    0    0    0  0.00000000000E+00  0.00000000000E+00  0.14999999963E+04  0.15000000000E+04  0.10566000000E+00 0. -1.
        994   -1    0    0    0    0 -0.00000000000E+00 -0.00000000000E+00  0.11368683772E-12  0.17120000000E+03  0.17120000000E+03 0.  0.
         13    1    1    2    0    0 -0.24473185068E+02 -0.41033910738E+02  0.15919963710E+03  0.16621448263E+03  0.10566000000E+00 0. -1.
        994    1    1    2    0    0  0.13851670107E+02  0.65470625198E+02  0.21148657302E+02  0.18502696353E+03  0.17120000000E+03 0.  0.
        998    1    1    2    0    0  0.10621514961E+02 -0.24436714460E+02  0.13196517019E+04  0.13199585538E+04  0.10000000000E+02 0. -1.
</event>
<event>
 5    1  0.9429340E-009  0.3852577E+03  0.7957747E-01  0.3428580E+00
         13   -1    0    0    0    0  0.00000000000E+00  0.00000000000E+00  0.14999999963E+04  0.15000000000E+04  0.10566000000E+00 0. -1.
        994   -1    0    0    0    0 -0.00000000000E+00 -0.00000000000E+00  0.11368683772E-12  0.17120000000E+03  0.17120000000E+03 0.  0.
         13    1    1    2    0    0 -0.96119735526E+01  0.15997103227E+02  0.10966238794E+03  0.11123914706E+03  0.10566000000E+00 0. -1.
        994    1    1    2    0    0  0.47592915589E+01 -0.18964452754E+02  0.27594576732E+01  0.17233501075E+03  0.17120000000E+03 0.  0.
        998    1    1    2    0    0  0.48526819937E+01  0.29673495263E+01  0.13875781507E+04  0.13876258422E+04  0.10000000000E+02 0. -1.
</event>
<event>
 5    1  0.9130022E-009  0.3863049E+03  0.7957747E-01  0.3424157E+00
         13   -1    0    0    0    0  0.00000000000E+00  0.00000000000E+00  0.14999999963E+04  0.15000000000E+04  0.10566000000E+00 0.  1.
        994   -1    0    0    0    0 -0.00000000000E+00 -0.00000000000E+00  0.11368683772E-12  0.17120000000E+03  0.17120000000E+03 0.  0.
         13    1    1    2    0    0  0.38691506791E-01 -0.10096682652E+02  0.51836888742E+02  0.52811160716E+02  0.10566000000E+00 0.  1.
        994    1    1    2    0    0 -0.11867493475E+01  0.91791521853E+01  0.12642398446E+01  0.17145466897E+03  0.17120000000E+03 0.  0.
        998    1    1    2    0    0  0.11480578407E+01  0.91753046674E+00  0.14468988677E+04  0.14469341703E+04  0.10000000000E+02 0.  1.
</event>
<event>
 5    1  0.9130022E-009  0.3763676E+03  0.7957747E-01  0.3467129E+00
         13   -1    0    0    0    0  0.00000000000E+00  0.00000000000E+00  0.14999999963E+04  0.15000000000E+04  0.10566000000E+00 0. -1.
        994   -1    0    0    0    0 -0.00000000000E+00 -0.00000000000E+00  0.11368683772E-12  0.17120000000E+03  0.17120000000E+03 0.  0.
         13    1    1    2    0    0 -0.43894034244E+01 -0.12301206295E+02  0.11472075819E+02  0.17384079681E+02  0.10566000000E+00 0. -1.
        994    1    1    2    0    0  0.42005207041E+01  0.13870412169E+02  0.66890640838E+01  0.17194247959E+03  0.17120000000E+03 0.  0.
        998    1    1    2    0    0  0.18888272037E+00 -0.15692058746E+01  0.14818388564E+04  0.14818734407E+04  0.10000000000E+02 0. -1.
</event>
<event>
 5    1  0.9130022E-009  0.3855694E+03  0.7957747E-01  0.3427261E+00
         13   -1    0    0    0    0  0.00000000000E+00  0.00000000000E+00  0.14999999963E+04  0.15000000000E+04  0.10566000000E+00 0.  1.
        994   -1    0    0    0    0 -0.00000000000E+00 -0.00000000000E+00  0.11368683772E-12  0.17120000000E+03  0.17120000000E+03 0.  0.
         13    1    1    2    0    0 -0.10230613775E+02  0.15608659694E+02  0.10358058318E+03  0.10524848737E+03  0.10566000000E+00 0.  1.
        994    1    1    2    0    0  0.18114189883E+01 -0.46417179643E+02  0.84632865210E+01  0.17759195653E+03  0.17120000000E+03 0.  0.
        998    1    1    2    0    0  0.84191947870E+01  0.30808519949E+02  0.13879561266E+04  0.13883595561E+04  0.10000000000E+02 0.  1.
</event>
<event>
 5    1  0.9130022E-009  0.3804993E+03  0.7957747E-01  0.3448987E+00
         13   -1    0    0    0    0  0.00000000000E+00  0.00000000000E+00  0.14999999963E+04  0.15000000000E+04  0.10566000000E+00 0.  1.
        994   -1    0    0    0    0 -0.00000000000E+00 -0.00000000000E+00  0.11368683772E-12  0.17120000000E+03  0.17120000000E+03 0.  0.
         13    1    1    2    0    0  0.12474302153E+02  0.13637256204E+00  0.18131184650E+02  0.22008585428E+02  0.10566000000E+00 0.  1.
        994    1    1    2    0    0 -0.14894863612E+02 -0.26088996785E+00  0.46223087719E+01  0.17190907703E+03  0.17120000000E+03 0.  0.
        998    1    1    2    0    0  0.24205614587E+01  0.12451740581E+00  0.14772465029E+04  0.14772823375E+04  0.10000000000E+02 0.  1.
</event>
<event>
 5    1  0.1538766E-008  0.3863763E+03  0.7957747E-01  0.3423856E+00
         13   -1    0    0    0    0  0.00000000000E+00  0.00000000000E+00  0.14999999963E+04  0.15000000000E+04  0.10566000000E+00 0. -1.
        994   -1    0    0    0    0 -0.00000000000E+00 -0.00000000000E+00  0.11368683772E-12  0.17120000000E+03  0.17120000000E+03 0.  0.
         13    1    1    2    0    0  0.98796698256E+01 -0.20749214910E+01  0.51962586907E+02  0.52934249566E+02  0.10566000000E+00 0. -1.
        994    1    1    2    0    0 -0.13527554833E+02  0.36944257618E+01  0.15924632088E+01  0.17178073076E+03  0.17120000000E+03 0.  0.
        998    1    1    2    0    0  0.36478850075E+01 -0.16195042708E+01  0.14464449462E+04  0.14464850197E+04  0.10000000000E+02 0. -1.
</event>
<event>
 5    1  0.9130022E-009  0.3816458E+03  0.7957747E-01  0.3444023E+00
         13   -1    0    0    0    0  0.00000000000E+00  0.00000000000E+00  0.14999999963E+04  0.15000000000E+04  0.10566000000E+00 0. -1.
        994   -1    0    0    0    0 -0.00000000000E+00 -0.00000000000E+00  0.11368683772E-12  0.17120000000E+03  0.17120000000E+03 0.  0.
         13    1    1    2    0    0  0.14784116325E+02  0.20994455745E+01  0.31512910061E+02  0.34871943332E+02  0.10566000000E+00 0. -1.
        994    1    1    2    0    0 -0.19693778192E+02  0.14267152624E+01  0.46020069314E+01  0.17239634243E+03  0.17120000000E+03 0.  0.
        998    1    1    2    0    0  0.49096618671E+01 -0.35261608369E+01  0.14638850793E+04  0.14639317142E+04  0.10000000000E+02 0. -1.
</event>
<event>
 5    1  0.9130022E-009  0.3719621E+03  0.7957747E-01  0.3486922E+00
         13   -1    0    0    0    0  0.00000000000E+00  0.00000000000E+00  0.14999999963E+04  0.15000000000E+04  0.10566000000E+00 0. -1.
        994   -1    0    0    0    0 -0.00000000000E+00 -0.00000000000E+00  0.11368683772E-12  0.17120000000E+03  0.17120000000E+03 0.  0.
         13    1    1    2    0    0 -0.14540075031E+02 -0.19761808627E+02  0.34123875936E+02  0.42028477667E+02  0.10566000000E+00 0. -1.
        994    1    1    2    0    0  0.20712798009E+02 -0.84115705782E+01  0.99653925258E+01  0.17294080944E+03  0.17120000000E+03 0.  0.
        998    1    1    2    0    0 -0.61727229779E+01  0.28173379205E+02  0.14559107278E+04  0.14562307129E+04  0.10000000000E+02 0. -1.
</event>
<event>
 5    1  0.9130022E-009  0.3817696E+03  0.7957747E-01  0.3443489E+00
         13   -1    0    0    0    0  0.00000000000E+00  0.00000000000E+00  0.14999999963E+04  0.15000000000E+04  0.10566000000E+00 0. -1.
        994   -1    0    0    0    0 -0.00000000000E+00 -0.00000000000E+00  0.11368683772E-12  0.17120000000E+03  0.17120000000E+03 0.  0.
         13    1    1    2    0    0 -0.26981804706E+02 -0.13240331100E+02  0.14037387459E+03  0.14355542478E+03  0.10566000000E+00 0. -1.
        994    1    1    2    0    0  0.83868338384E+01  0.18936424301E+02  0.46693673192E+01  0.17251136235E+03  0.17120000000E+03 0.  0.
        998    1    1    2    0    0  0.18594970868E+02 -0.56960932010E+01  0.13549567544E+04  0.13551332129E+04  0.10000000000E+02 0. -1.
</event>
<event>
 5    1  0.1135204E-008  0.3862588E+03  0.7957747E-01  0.3424351E+00
         13   -1    0    0    0    0  0.00000000000E+00  0.00000000000E+00  0.14999999963E+04  0.15000000000E+04  0.10566000000E+00 0. -1.
        994   -1    0    0    0    0 -0.00000000000E+00 -0.00000000000E+00  0.11368683772E-12  0.17120000000E+03  0.17120000000E+03 0.  0.
         13    1    1    2    0    0 -0.12318246619E+01  0.11875159120E+02  0.68497401150E+02  0.69530151190E+02  0.10566000000E+00 0. -1.
        994    1    1    2    0    0  0.23801839837E+02 -0.12480378375E+02  0.33757384891E+01  0.17332952153E+03  0.17120000000E+03 0.  0.
        998    1    1    2    0    0 -0.22570015175E+02  0.60521925433E+00  0.14281268566E+04  0.14283403273E+04  0.10000000000E+02 0. -1.
</event>
<event>
 5    1  0.9130022E-009  0.3829135E+03  0.7957747E-01  0.3438570E+00
         13   -1    0    0    0    0  0.00000000000E+00  0.00000000000E+00  0.14999999963E+04  0.15000000000E+04  0.10566000000E+00 0. -1.
        994   -1    0    0    0    0 -0.00000000000E+00 -0.00000000000E+00  0.11368683772E-12  0.17120000000E+03  0.17120000000E+03 0.  0.
         13    1    1    2    0    0 -0.16401018617E+02 -0.58959382986E+01  0.53389462668E+02  0.56162277269E+02  0.10566000000E+00 0. -1.
        994    1    1    2    0    0  0.20948946895E+02  0.71541013065E+01  0.42938472031E+01  0.17267865145E+03  0.17120000000E+03 0.  0.
        998    1    1    2    0    0 -0.45479282787E+01 -0.12581630079E+01  0.14423166864E+04  0.14423590713E+04  0.10000000000E+02 0. -1.
</event>
<event>
 5    1  0.9130022E-009  0.3858942E+03  0.7957747E-01  0.3425889E+00
         13   -1    0    0    0    0  0.00000000000E+00  0.00000000000E+00  0.14999999963E+04  0.15000000000E+04  0.10566000000E+00 0.  1.
        994   -1    0    0    0    0 -0.00000000000E+00 -0.00000000000E+00  0.11368683772E-12  0.17120000000E+03  0.17120000000E+03 0.  0.
         13    1    1    2    0    0 -0.11718938820E+02  0.31577403437E+00  0.58894797795E+02  0.60050325658E+02  0.10566000000E+00 0.  1.
        994    1    1    2    0    0  0.67252429657E+01 -0.11438341111E+02  0.17643992346E+01  0.17172250186E+03  0.17120000000E+03 0.  0.
        998    1    1    2    0    0  0.49936958542E+01  0.11122567077E+02  0.14393407992E+04  0.14394271725E+04  0.10000000000E+02 0.  1.
</event>
<event>
 5    1  0.9130022E-009  0.3848949E+03  0.7957747E-01  0.3430118E+00
         13   -1    0    0    0    0  0.00000000000E+00  0.00000000000E+00  0.14999999963E+04  0.15000000000E+04  0.10566000000E+00 0. -1.
        994   -1    0    0    0    0 -0.00000000000E+00 -0.00000000000E+00  0.11368683772E-12  0.17120000000E+03  0.17120000000E+03 0.  0.
         13    1    1    2    0    0  0.11679207719E+01  0.17156224017E+02  0.88354233266E+02  0.90012120082E+02  0.10566000000E+00 0. -1.
        994    1    1    2    0    0 -0.32472824208E+01 -0.10144981510E+02  0.20557044108E+01  0.17154338056E+03  0.17120000000E+03 0.  0.
        998    1    1    2    0    0  0.20793616489E+01 -0.70112425071E+01  0.14095900586E+04  0.14096444994E+04  0.10000000000E+02 0. -1.
</event>
<event>
 5    1  0.9130022E-009  0.3770269E+03  0.7957747E-01  0.3464207E+00
         13   -1    0    0    0    0  0.00000000000E+00  0.00000000000E+00  0.14999999963E+04  0.15000000000E+04  0.10566000000E+00 0. -1.
        994   -1    0    0    0    0 -0.00000000000E+00 -0.00000000000E+00  0.11368683772E-12  0.17120000000E+03  0.17120000000E+03 0.  0.
         13    1    1    2    0    0  0.69261899274E+01  0.47986801406E+02  0.17375225257E+03  0.18039002648E+03  0.10566000000E+00 0. -1.
        994    1    1    2    0    0 -0.51564829332E+01 -0.57554747744E+02  0.16999166923E+02  0.18148705183E+03  0.17120000000E+03 0.  0.
        998    1    1    2    0    0 -0.17697069942E+01  0.95679463387E+01  0.13092485768E+04  0.13093229217E+04  0.10000000000E+02 0. -1.
</event>
<event>
 5    1  0.9130022E-009  0.3711928E+03  0.7957747E-01  0.3490427E+00
         13   -1    0    0    0    0  0.00000000000E+00  0.00000000000E+00  0.14999999963E+04  0.15000000000E+04  0.10566000000E+00 0. -1.
        994   -1    0    0    0    0 -0.00000000000E+00 -0.00000000000E+00  0.11368683772E-12  0.17120000000E+03  0.17120000000E+03 0.  0.
         13    1    1    2    0    0 -0.85352027441E+02  0.56605970850E+01  0.45206422797E+03  0.46008595754E+03  0.10566000000E+00 0. -1.
        994    1    1    2    0    0  0.43353125611E+02  0.19364996315E+02  0.16450518207E+02  0.17842240928E+03  0.17120000000E+03 0.  0.
        998    1    1    2    0    0  0.41998901831E+02 -0.25025593400E+02  0.10314852501E+04  0.10326916332E+04  0.10000000000E+02 0. -1.
</event>
<event>
 5    1  0.9130022E-009  0.3740871E+03  0.7957747E-01  0.3477316E+00
         13   -1    0    0    0    0  0.00000000000E+00  0.00000000000E+00  0.14999999963E+04  0.15000000000E+04  0.10566000000E+00 0. -1.
        994   -1    0    0    0    0 -0.00000000000E+00 -0.00000000000E+00  0.11368683772E-12  0.17120000000E+03  0.17120000000E+03 0.  0.
         13    1    1    2    0    0 -0.29472086708E+02 -0.90784569570E+00  0.28589695146E+02  0.41070791462E+02  0.10566000000E+00 0. -1.
        994    1    1    2    0    0  0.95380724589E+01  0.55459650501E+01  0.13548349101E+02  0.17208930913E+03  0.17120000000E+03 0.  0.
        998    1    1    2    0    0  0.19934014249E+02 -0.46381193544E+01  0.14578619520E+04  0.14580398994E+04  0.10000000000E+02 0. -1.
</event>
<event>
 5    1  0.9130022E-009  0.3760431E+03  0.7957747E-01  0.3468571E+00
         13   -1    0    0    0    0  0.00000000000E+00  0.00000000000E+00  0.14999999963E+04  0.15000000000E+04  0.10566000000E+00 0. -1.
        994   -1    0    0    0    0 -0.00000000000E+00 -0.00000000000E+00  0.11368683772E-12  0.17120000000E+03  0.17120000000E+03 0.  0.
         13    1    1    2    0    0  0.22360248632E+01  0.34376623512E+02  0.87057837357E+02  0.93626012734E+02  0.10566000000E+00 0. -1.
        994    1    1    2    0    0 -0.13431086092E+02 -0.40242123168E+02  0.12264993747E+02  0.17680410805E+03  0.17120000000E+03 0.  0.
        998    1    1    2    0    0  0.11195061229E+02  0.58654996565E+01  0.14006771652E+04  0.14007698792E+04  0.10000000000E+02 0. -1.
</event>
<event>
 5    1  0.9130022E-009  0.3827025E+03  0.7957747E-01  0.3439475E+00
         13   -1    0    0    0    0  0.00000000000E+00  0.00000000000E+00  0.14999999963E+04  0.15000000000E+04  0.10566000000E+00 0.  1.
        994   -1    0    0    0    0 -0.00000000000E+00 -0.00000000000E+00  0.11368683772E-12  0.17120000000E+03  0.17120000000E+03 0.  0.
         13    1    1    2    0    0 -0.26043868814E+02 -0.30788762555E+01  0.13046411113E+03  0.13307388188E+03  0.10566000000E+00 0.  1.
        994    1    1    2    0    0  0.75702453807E+01  0.11746965735E+01  0.29695825713E+01  0.17139704475E+03  0.17120000000E+03 0.  0.
        998    1    1    2    0    0  0.18473623433E+02  0.19041796819E+01  0.13665663026E+04  0.13667290734E+04  0.10000000000E+02 0.  1.
</event>
<event>
 5    1  0.9130022E-009  0.3749570E+03  0.7957747E-01  0.3473415E+00
         13   -1    0    0    0    0  0.00000000000E+00  0.00000000000E+00  0.14999999963E+04  0.15000000000E+04  0.10566000000E+00 0.  1.
        994   -1    0    0    0    0 -0.00000000000E+00 -0.00000000000E+00  0.11368683772E-12  0.17120000000E+03  0.17120000000E+03 0.  0.
         13    1    1    2    0    0  0.73063264501E+02 -0.19126293325E+03  0.55961892318E+03  0.59589688756E+03  0.10566000000E+00 0.  1.
        994    1    1    2    0    0 -0.11368725492E+03  0.25246578717E+03  0.34131161941E+03  0.47166389216E+03  0.17120000000E+03 0.  0.
        998    1    1    2    0    0  0.40623990419E+02 -0.61202853916E+02  0.59906945369E+03  0.60363922029E+03  0.10000000000E+02 0.  1.
</event>
<event>
 5    1  0.9130022E-009  0.3827886E+03  0.7957747E-01  0.3439106E+00
         13   -1    0    0    0    0  0.00000000000E+00  0.00000000000E+00  0.14999999963E+04  0.15000000000E+04  0.10566000000E+00 0.  1.
        994   -1    0    0    0    0 -0.00000000000E+00 -0.00000000000E+00  0.11368683772E-12  0.17120000000E+03  0.17120000000E+03 0.  0.
         13    1    1    2    0    0  0.17076449340E+03  0.11640337936E+03  0.12289468244E+04  0.12462024584E+04  0.10566000000E+00 0.  1.
        994    1    1    2    0    0 -0.17217967114E+03 -0.10644917871E+03  0.15300367566E+03  0.30609938184E+03  0.17120000000E+03 0.  0.
        998    1    1    2    0    0  0.14151777319E+01 -0.99542006504E+01  0.11804949625E+03  0.11889815980E+03  0.10000000000E+02 0.  1.
</event>
<event>
 5    1  0.9130022E-009  0.3799432E+03  0.7957747E-01  0.3451406E+00
         13   -1    0    0    0    0  0.00000000000E+00  0.00000000000E+00  0.14999999963E+04  0.15000000000E+04  0.10566000000E+00 0. -1.
        994   -1    0    0    0    0 -0.00000000000E+00 -0.00000000000E+00  0.11368683772E-12  0.17120000000E+03  0.17120000000E+03 0.  0.
         13    1    1    2    0    0  0.14020258772E+02 -0.27397402115E+01  0.22543852650E+02  0.26689141777E+02  0.10566000000E+00 0. -1.
        994    1    1    2    0    0 -0.14041174381E+02  0.16043367222E+01  0.48298905725E+01  0.17185021477E+03  0.17120000000E+03 0.  0.
        998    1    1    2    0    0  0.20915609640E-01  0.11354034893E+01  0.14726262531E+04  0.14726606435E+04  0.10000000000E+02 0. -1.
</event>
<event>
 5    1  0.9130022E-009  0.3812154E+03  0.7957747E-01  0.3445883E+00
         13   -1    0    0    0    0  0.00000000000E+00  0.00000000000E+00  0.14999999963E+04  0.15000000000E+04  0.10566000000E+00 0. -1.
        994   -1    0    0    0    0 -0.00000000000E+00 -0.00000000000E+00  0.11368683772E-12  0.17120000000E+03  0.17120000000E+03 0.  0.
         13    1    1    2    0    0  0.31512234547E+02 -0.15756147490E+02  0.16378646821E+03  0.16753296823E+03  0.10566000000E+00 0. -1.
        994    1    1    2    0    0 -0.26519530702E+02  0.14240571511E+02  0.65435749288E+01  0.17394923903E+03  0.17120000000E+03 0.  0.
        998    1    1    2    0    0 -0.49927038459E+01  0.15155759796E+01  0.13296699531E+04  0.13297177927E+04  0.10000000000E+02 0. -1.
</event>
<event>
 5    1  0.9130022E-009  0.3723761E+03  0.7957747E-01  0.3485042E+00
         13   -1    0    0    0    0  0.00000000000E+00  0.00000000000E+00  0.14999999963E+04  0.15000000000E+04  0.10566000000E+00 0. -1.
        994   -1    0    0    0    0 -0.00000000000E+00 -0.00000000000E+00  0.11368683772E-12  0.17120000000E+03  0.17120000000E+03 0.  0.
         13    1    1    2    0    0  0.88942514936E+02 -0.30402836459E+02  0.41394615307E+03  0.42448384214E+03  0.10566000000E+00 0. -1.
        994    1    1    2    0    0 -0.10008769181E+03 -0.11801149624E+02  0.43712712967E+02  0.20341350609E+03  0.17120000000E+03 0.  0.
        998    1    1    2    0    0  0.11145176877E+02  0.42203986083E+02  0.10423411302E+04  0.10433026518E+04  0.10000000000E+02 0.  0.
</event>
<event>
 5    1  0.1155715E-008  0.3852199E+03  0.7957747E-01  0.3428740E+00
         13   -1    0    0    0    0  0.00000000000E+00  0.00000000000E+00  0.14999999963E+04  0.15000000000E+04  0.10566000000E+00 0.  1.
        994   -1    0    0    0    0 -0.00000000000E+00 -0.00000000000E+00  0.11368683772E-12  0.17120000000E+03  0.17120000000E+03 0.  0.
         13    1    1    2    0    0 -0.84076806685E+01 -0.76067206367E+01  0.41172035193E+02  0.42704788245E+02  0.10566000000E+00 0.  1.
        994    1    1    2    0    0  0.89617603301E+01  0.88560914787E+01  0.20428611838E+01  0.17167514901E+03  0.17120000000E+03 0.  0.
        998    1    1    2    0    0 -0.55407966153E+00 -0.12493708421E+01  0.14567850999E+04  0.14568200627E+04  0.10000000000E+02 0.  1.
</event>
<event>
 5    1  0.9130022E-009  0.3806712E+03  0.7957747E-01  0.3448241E+00
         13   -1    0    0    0    0  0.00000000000E+00  0.00000000000E+00  0.14999999963E+04  0.15000000000E+04  0.10566000000E+00 0. -1.
        994   -1    0    0    0    0 -0.00000000000E+00 -0.00000000000E+00  0.11368683772E-12  0.17120000000E+03  0.17120000000E+03 0.  0.
         13    1    1    2    0    0 -0.15221348034E+02  0.26243317173E+01  0.30024128923E+02  0.33764419654E+02  0.10566000000E+00 0. -1.
        994    1    1    2    0    0  0.99578791131E+01  0.20470527457E+00  0.41256748943E+01  0.17153909891E+03  0.17120000000E+03 0.  0.
        998    1    1    2    0    0  0.52634689208E+01 -0.28290369918E+01  0.14658501925E+04  0.14658964814E+04  0.10000000000E+02 0. -1.
</event>
<event>
 5    1  0.9130022E-009  0.3788088E+03  0.7957747E-01  0.3456362E+00
         13   -1    0    0    0    0  0.00000000000E+00  0.00000000000E+00  0.14999999963E+04  0.15000000000E+04  0.10566000000E+00 0.  1.
        994   -1    0    0    0    0 -0.00000000000E+00 -0.00000000000E+00  0.11368683772E-12  0.17120000000E+03  0.17120000000E+03 0.  0.
         13    1    1    2    0    0  0.44644974842E+02 -0.42612653111E+01  0.25045535450E+03  0.25443904559E+03  0.10566000000E+00 0.  1.
        994    1    1    2    0    0 -0.34015767359E+01  0.16353688015E+02  0.56726335474E+01  0.17210645719E+03  0.17120000000E+03 0.  0.
        998    1    1    2    0    0 -0.41243398106E+02 -0.12092422704E+02  0.12438720082E+04  0.12446544972E+04  0.10000000000E+02 0.  1.
</event>
<event>
 5    1  0.9130022E-009  0.4021926E+03  0.7957747E-01  0.3359876E+00
         13   -1    0    0    0    0  0.00000000000E+00  0.00000000000E+00  0.14999999963E+04  0.15000000000E+04  0.10566000000E+00 0. -1.
        994   -1    0    0    0    0 -0.00000000000E+00 -0.00000000000E+00  0.11368683772E-12  0.17120000000E+03  0.17120000000E+03 0.  0.
         13    1    1    2    0    0  0.14952169532E+02 -0.14653367418E+03  0.30869948037E+03  0.34203956699E+03  0.10566000000E+00 0. -1.
        994    1    1    2    0    0 -0.32919046128E+02  0.12477449732E+03  0.98469666429E+02  0.23591959220E+03  0.17120000000E+03 0.  0.
        998    1    1    2    0    0  0.17966876596E+02  0.21759176858E+02  0.10928308495E+04  0.10932408408E+04  0.10000000000E+02 0. -1.
</event>
<event>
 5    1  0.9130022E-009  0.3769419E+03  0.7957747E-01  0.3464583E+00
         13   -1    0    0    0    0  0.00000000000E+00  0.00000000000E+00  0.14999999963E+04  0.15000000000E+04  0.10566000000E+00 0. -1.
        994   -1    0    0    0    0 -0.00000000000E+00 -0.00000000000E+00  0.11368683772E-12  0.17120000000E+03  0.17120000000E+03 0.  0.
         13    1    1    2    0    0 -0.13102164426E+02 -0.20508186033E+02  0.48907346329E+02  0.54627759391E+02  0.10566000000E+00 0. -1.
        994    1    1    2    0    0  0.24564090769E+02  0.10322426491E+02  0.80861516122E+01  0.17344962638E+03  0.17120000000E+03 0.  0.
        998    1    1    2    0    0 -0.11461926342E+02  0.10185759542E+02  0.14430064983E+04  0.14431226142E+04  0.10000000000E+02 0. -1.
</event>
<event>
 5    1  0.9130022E-009  0.3851825E+03  0.7957747E-01  0.3428899E+00
         13   -1    0    0    0    0  0.00000000000E+00  0.00000000000E+00  0.14999999963E+04  0.15000000000E+04  0.10566000000E+00 0.  1.
        994   -1    0    0    0    0 -0.00000000000E+00 -0.00000000000E+00  0.11368683772E-12  0.17120000000E+03  0.17120000000E+03 0.  0.
         13    1    1    2    0    0 -0.34868014381E+02  0.33332745962E+02  0.50475435713E+02  0.69818558813E+02  0.10566000000E+00 0.  1.
        994    1    1    2    0    0  0.37300412260E+02 -0.44776234901E+02  0.31858444050E+02  0.18363178490E+03  0.17120000000E+03 0.  0.
        998    1    1    2    0    0 -0.24323978789E+01  0.11443488940E+02  0.14176661165E+04  0.14177496563E+04  0.10000000000E+02 0.  1.
</event>
<event>
 5    1  0.9130022E-009  0.3804079E+03  0.7957747E-01  0.3449385E+00
         13   -1    0    0    0    0  0.00000000000E+00  0.00000000000E+00  0.14999999963E+04  0.15000000000E+04  0.10566000000E+00 0. -1.
        994   -1    0    0    0    0 -0.00000000000E+00 -0.00000000000E+00  0.11368683772E-12  0.17120000000E+03  0.17120000000E+03 0.  0.
         13    1    1    2    0    0  0.73701083295E+01 -0.19283601436E+02  0.53181371568E+02  0.57047745153E+02  0.10566000000E+00 0. -1.
        994    1    1    2    0    0 -0.88246164752E+00  0.12159692083E+02  0.44237701065E+01  0.17169055475E+03  0.17120000000E+03 0.  0.
        998    1    1    2    0    0 -0.64876466820E+01  0.71239093539E+01  0.14423948546E+04  0.14424617001E+04  0.10000000000E+02 0. -1.
</event>
<event>
 5    1  0.9130022E-009  0.3827613E+03  0.7957747E-01  0.3439223E+00
         13   -1    0    0    0    0  0.00000000000E+00  0.00000000000E+00  0.14999999963E+04  0.15000000000E+04  0.10566000000E+00 0. -1.
        994   -1    0    0    0    0 -0.00000000000E+00 -0.00000000000E+00  0.11368683772E-12  0.17120000000E+03  0.17120000000E+03 0.  0.
         13    1    1    2    0    0 -0.18545301657E+02  0.25763031767E+02  0.19110305272E+03  0.19372157841E+03  0.10566000000E+00 0. -1.
        994    1    1    2    0    0 -0.18993105478E+01 -0.18281369130E+02  0.38655764851E+01  0.17222717126E+03  0.17120000000E+03 0.  0.
        998    1    1    2    0    0  0.20444612205E+02 -0.74816626362E+01  0.13050313671E+04  0.13052512503E+04  0.10000000000E+02 0. -1.
</event>
<event>
 5    1  0.9130022E-009  0.3828899E+03  0.7957747E-01  0.3438671E+00
         13   -1    0    0    0    0  0.00000000000E+00  0.00000000000E+00  0.14999999963E+04  0.15000000000E+04  0.10566000000E+00 0.  1.
        994   -1    0    0    0    0 -0.00000000000E+00 -0.00000000000E+00  0.11368683772E-12  0.17120000000E+03  0.17120000000E+03 0.  0.
         13    1    1    2    0    0 -0.14966529340E+01 -0.17580113202E+02  0.56558966803E+02  0.59247179174E+02  0.10566000000E+00 0.  1.
        994    1    1    2    0    0  0.93456432058E+01  0.13349337748E+02  0.35612035779E+01  0.17201066257E+03  0.17120000000E+03 0.  0.
        998    1    1    2    0    0 -0.78489902718E+01  0.42307754539E+01  0.14398798259E+04  0.14399421583E+04  0.10000000000E+02 0.  1.
</event>
<event>
 5    1  0.9130022E-009  0.3755635E+03  0.7957747E-01  0.3470707E+00
         13   -1    0    0    0    0  0.00000000000E+00  0.00000000000E+00  0.14999999963E+04  0.15000000000E+04  0.10566000000E+00 0.  1.
        994   -1    0    0    0    0 -0.00000000000E+00 -0.00000000000E+00  0.11368683772E-12  0.17120000000E+03  0.17120000000E+03 0.  0.
         13    1    1    2    0    0  0.16052591046E+02  0.35311141682E+02  0.50253782840E+02  0.63482409059E+02  0.10566000000E+00 0.  1.
        994    1    1    2    0    0 -0.34095662878E+02 -0.16072057550E+01  0.18076887074E+02  0.17550302329E+03  0.17120000000E+03 0.  0.
        998    1    1    2    0    0  0.18043071831E+02 -0.33703935927E+02  0.14316693264E+04  0.14322145677E+04  0.10000000000E+02 0.  1.
</event>
<event>
 5    1  0.9130022E-009  0.3769088E+03  0.7957747E-01  0.3464730E+00
         13   -1    0    0    0    0  0.00000000000E+00  0.00000000000E+00  0.14999999963E+04  0.15000000000E+04  0.10566000000E+00 0. -1.
        994   -1    0    0    0    0 -0.00000000000E+00 -0.00000000000E+00  0.11368683772E-12  0.17120000000E+03  0.17120000000E+03 0.  0.
         13    1    1    2    0    0  0.59520768280E+02 -0.35476497299E+02  0.14927747130E+03  0.16457544871E+03  0.10566000000E+00 0. -1.
        994    1    1    2    0    0 -0.52037097343E+02  0.30651756347E+02  0.27826072236E+02  0.18366033857E+03  0.17120000000E+03 0.  0.
        998    1    1    2    0    0 -0.74836709379E+01  0.48247409527E+01  0.13228964527E+04  0.13229642127E+04  0.10000000000E+02 0. -1.
</event>
<event>
 5    1  0.9130022E-009  0.3848420E+03  0.7957747E-01  0.3430343E+00
         13   -1    0    0    0    0  0.00000000000E+00  0.00000000000E+00  0.14999999963E+04  0.15000000000E+04  0.10566000000E+00 0. -1.
        994   -1    0    0    0    0 -0.00000000000E+00 -0.00000000000E+00  0.11368683772E-12  0.17120000000E+03  0.17120000000E+03 0.  0.
         13    1    1    2    0    0  0.17730946365E+02  0.82276552722E+01  0.10386377232E+03  0.10568715691E+03  0.10566000000E+00 0. -1.
        994    1    1    2    0    0 -0.20115117548E+02 -0.85621821066E+01  0.32827517193E+01  0.17262139316E+03  0.17120000000E+03 0.  0.
        998    1    1    2    0    0  0.23841711838E+01  0.33452683448E+00  0.13928534722E+04  0.13928914499E+04  0.10000000000E+02 0. -1.
</event>
<event>
 5    1  0.9130022E-009  0.3835611E+03  0.7957747E-01  0.3435798E+00
         13   -1    0    0    0    0  0.00000000000E+00  0.00000000000E+00  0.14999999963E+04  0.15000000000E+04  0.10566000000E+00 0. -1.
        994   -1    0    0    0    0 -0.00000000000E+00 -0.00000000000E+00  0.11368683772E-12  0.17120000000E+03  0.17120000000E+03 0.  0.
         13    1    1    2    0    0 -0.11025311698E+02 -0.12321350787E+02  0.56174136905E+02  0.58556963756E+02  0.10566000000E+00 0. -1.
        994    1    1    2    0    0  0.16181405890E+02  0.71366440216E+01  0.33803233600E+01  0.17214423072E+03  0.17120000000E+03 0.  0.
        998    1    1    2    0    0 -0.51560941918E+01  0.51847067657E+01  0.14404455360E+04  0.14404988055E+04  0.10000000000E+02 0. -1.
</event>
<event>
 5    1  0.9130022E-009  0.3708230E+03  0.7957747E-01  0.3492117E+00
         13   -1    0    0    0    0  0.00000000000E+00  0.00000000000E+00  0.14999999963E+04  0.15000000000E+04  0.10566000000E+00 0.  1.
        994   -1    0    0    0    0 -0.00000000000E+00 -0.00000000000E+00  0.11368683772E-12  0.17120000000E+03  0.17120000000E+03 0.  0.
         13    1    1    2    0    0  0.86227546666E+02 -0.24018231691E+02  0.34400709725E+03  0.35546161449E+03  0.10566000000E+00 0.  1.
        994    1    1    2    0    0 -0.86423440501E+02  0.23520785455E+02  0.37029814224E+02  0.19673048965E+03  0.17120000000E+03 0.  0.
        998    1    1    2    0    0  0.19589383517E+00  0.49744623536E+00  0.11189630848E+04  0.11190078959E+04  0.10000000000E+02 0.  0.
</event>
<event>
 5    1  0.9130022E-009  0.3773712E+03  0.7957747E-01  0.3462685E+00
         13   -1    0    0    0    0  0.00000000000E+00  0.00000000000E+00  0.14999999963E+04  0.15000000000E+04  0.10566000000E+00 0. -1.
        994   -1    0    0    0    0 -0.00000000000E+00 -0.00000000000E+00  0.11368683772E-12  0.17120000000E+03  0.17120000000E+03 0.  0.
         13    1    1    2    0    0 -0.54748494347E+02  0.33923806540E+02  0.36833451889E+03  0.37392318897E+03  0.10566000000E+00 0. -1.
        994    1    1    2    0    0  0.33318492447E+01 -0.92803350790E+02  0.35122349349E+02  0.19790548896E+03  0.17120000000E+03 0.  0.
        998    1    1    2    0    0  0.51416645102E+02  0.58879544251E+02  0.10965431280E+04  0.10993713221E+04  0.10000000000E+02 0. -1.
</event>
<event>
 5    1  0.9130022E-009  0.3800772E+03  0.7957747E-01  0.3450822E+00
         13   -1    0    0    0    0  0.00000000000E+00  0.00000000000E+00  0.14999999963E+04  0.15000000000E+04  0.10566000000E+00 0.  1.
        994   -1    0    0    0    0 -0.00000000000E+00 -0.00000000000E+00  0.11368683772E-12  0.17120000000E+03  0.17120000000E+03 0.  0.
         13    1    1    2    0    0 -0.80811776299E+01  0.12503432020E+02  0.25052577306E+02  0.29142478238E+02  0.10566000000E+00 0.  1.
        994    1    1    2    0    0  0.11207864490E+02 -0.10799420327E+02  0.49041936965E+01  0.17197597164E+03  0.17120000000E+03 0.  0.
        998    1    1    2    0    0 -0.31266868598E+01 -0.17040116935E+01  0.14700432253E+04  0.14700815501E+04  0.10000000000E+02 0.  1.
</event>
<event>
 5    1  0.9130022E-009  0.3845998E+03  0.7957747E-01  0.3431371E+00
         13   -1    0    0    0    0  0.00000000000E+00  0.00000000000E+00  0.14999999963E+04  0.15000000000E+04  0.10566000000E+00 0.  1.
        994   -1    0    0    0    0 -0.00000000000E+00 -0.00000000000E+00  0.11368683772E-12  0.17120000000E+03  0.17120000000E+03 0.  0.
         13    1    1    2    0    0 -0.32327301586E+01 -0.13897223824E+02  0.52930997156E+02  0.54820479734E+02  0.10566000000E+00 0.  1.
        994    1    1    2    0    0  0.49151083415E+01  0.17374813890E+02  0.29033416222E+01  0.17217407424E+03  0.17120000000E+03 0.  0.
        998    1    1    2    0    0 -0.16823781830E+01 -0.34775900666E+01  0.14441656575E+04  0.14442054460E+04  0.10000000000E+02 0.  1.
</event>
<event>
 5    1  0.9130022E-009  0.3817255E+03  0.7957747E-01  0.3443679E+00
         13   -1    0    0    0    0  0.00000000000E+00  0.00000000000E+00  0.14999999963E+04  0.15000000000E+04  0.10566000000E+00 0.  1.
        994   -1    0    0    0    0 -0.00000000000E+00 -0.00000000000E+00  0.11368683772E-12  0.17120000000E+03  0.17120000000E+03 0.  0.
         13    1    1    2    0    0 -0.24219083790E+02 -0.14221417978E+02  0.12057544578E+03  0.12380331998E+03  0.10566000000E+00 0.  1.
        994    1    1    2    0    0  0.14763113658E+02  0.61261479995E+01  0.41142952000E+01  0.17199374012E+03  0.17120000000E+03 0.  0.
        998    1    1    2    0    0  0.94559701323E+01  0.80952699781E+01  0.13753102553E+04  0.13754029399E+04  0.10000000000E+02 0.  1.
</event>
<event>
 5    1  0.9130022E-009  0.3954818E+03  0.7957747E-01  0.3386399E+00
         13   -1    0    0    0    0  0.00000000000E+00  0.00000000000E+00  0.14999999963E+04  0.15000000000E+04  0.10566000000E+00 0.  1.
        994   -1    0    0    0    0 -0.00000000000E+00 -0.00000000000E+00  0.11368683772E-12  0.17120000000E+03  0.17120000000E+03 0.  0.
         13    1    1    2    0    0 -0.45734916731E+02 -0.33881966954E+02  0.53502829840E+02  0.78116798821E+02  0.10566000000E+00 0.  1.
        994    1    1    2    0    0  0.54148233265E+02  0.25484497728E+02  0.39005335083E+02  0.18550565208E+03  0.17120000000E+03 0.  0.
        998    1    1    2    0    0 -0.84133165338E+01  0.83974692263E+01  0.14074918314E+04  0.14075775491E+04  0.10000000000E+02 0.  1.
</event>
<event>
 5    1  0.9130022E-009  0.3840354E+03  0.7957747E-01  0.3433774E+00
         13   -1    0    0    0    0  0.00000000000E+00  0.00000000000E+00  0.14999999963E+04  0.15000000000E+04  0.10566000000E+00 0.  1.
        994   -1    0    0    0    0 -0.00000000000E+00 -0.00000000000E+00  0.11368683772E-12  0.17120000000E+03  0.17120000000E+03 0.  0.
         13    1    1    2    0    0 -0.12036073375E+02  0.40821134910E+01  0.38129276150E+02  0.40191834701E+02  0.10566000000E+00 0.  1.
        994    1    1    2    0    0  0.69606502925E+01  0.66177373044E+00  0.22711169369E+01  0.17135777359E+03  0.17120000000E+03 0.  0.
        998    1    1    2    0    0  0.50754230822E+01 -0.47438872215E+01  0.14595996032E+04  0.14596503917E+04  0.10000000000E+02 0.  1.
</event>
<event>
 5    1  0.9130022E-009  0.3852954E+03  0.7957747E-01  0.3428420E+00
         13   -1    0    0    0    0  0.00000000000E+00  0.00000000000E+00  0.14999999963E+04  0.15000000000E+04  0.10566000000E+00 0. -1.
        994   -1    0    0    0    0 -0.00000000000E+00 -0.00000000000E+00  0.11368683772E-12  0.17120000000E+03  0.17120000000E+03 0.  0.
         13    1    1    2    0    0 -0.63899756521E+01 -0.13930829380E+02  0.78651712234E+02  0.80131159966E+02  0.10566000000E+00 0. -1.
        994    1    1    2    0    0  0.78112401719E+01  0.88960736040E+01  0.19441674847E+01  0.17161985720E+03  0.17120000000E+03 0.  0.
        998    1    1    2    0    0 -0.14212645198E+01  0.50347557762E+01  0.14194041166E+04  0.14194489828E+04  0.10000000000E+02 0. -1.
</event>
<event>
 5    1  0.9130022E-009  0.3757979E+03  0.7957747E-01  0.3469662E+00
         13   -1    0    0    0    0  0.00000000000E+00  0.00000000000E+00  0.14999999963E+04  0.15000000000E+04  0.10566000000E+00 0.  1.
        994   -1    0    0    0    0 -0.00000000000E+00 -0.00000000000E+00  0.11368683772E-12  0.17120000000E+03  0.17120000000E+03 0.  0.
         13    1    1    2    0    0  0.11234166814E+02  0.75888550688E+02  0.35127952250E+03  0.35955888630E+03  0.10566000000E+00 0.  1.
        994    1    1    2    0    0 -0.74867294798E+01 -0.78279976851E+02  0.27530124585E+02  0.19039735727E+03  0.17120000000E+03 0.  0.
        998    1    1    2    0    0 -0.37474373340E+01  0.23914261631E+01  0.11211903492E+04  0.11212437564E+04  0.10000000000E+02 0.  1.
</event>
<event>
 5    1  0.9130022E-009  0.3751766E+03  0.7957747E-01  0.3472433E+00
         13   -1    0    0    0    0  0.00000000000E+00  0.00000000000E+00  0.14999999963E+04  0.15000000000E+04  0.10566000000E+00 0.  1.
        994   -1    0    0    0    0 -0.00000000000E+00 -0.00000000000E+00  0.11368683772E-12  0.17120000000E+03  0.17120000000E+03 0.  0.
         13    1    1    2    0    0 -0.42903743228E+02  0.96891635191E+01  0.65208309984E+02  0.78655870268E+02  0.10566000000E+00 0.  1.
        994    1    1    2    0    0  0.38850261217E+02  0.28820809022E+02  0.22081536182E+02  0.17926800068E+03  0.17120000000E+03 0.  0.
        998    1    1    2    0    0  0.40534820107E+01 -0.38509972541E+02  0.14127101501E+04  0.14132761290E+04  0.10000000000E+02 0.  1.
</event>
<event>
 5    1  0.9130022E-009  0.3816376E+03  0.7957747E-01  0.3444059E+00
         13   -1    0    0    0    0  0.00000000000E+00  0.00000000000E+00  0.14999999963E+04  0.15000000000E+04  0.10566000000E+00 0. -1.
        994   -1    0    0    0    0 -0.00000000000E+00 -0.00000000000E+00  0.11368683772E-12  0.17120000000E+03  0.17120000000E+03 0.  0.
         13    1    1    2    0    0 -0.16585947898E+02  0.13510184189E+02  0.68249702256E+02  0.71523784621E+02  0.10566000000E+00 0. -1.
        994    1    1    2    0    0  0.22177351779E+01 -0.17952078506E+02  0.43974294471E+01  0.17220909633E+03  0.17120000000E+03 0.  0.
        998    1    1    2    0    0  0.14368212720E+02  0.44418943169E+01  0.14273528646E+04  0.14274671191E+04  0.10000000000E+02 0. -1.
</event>
<event>
 5    1  0.9130022E-009  0.3907118E+03  0.7957747E-01  0.3405803E+00
         13   -1    0    0    0    0  0.00000000000E+00  0.00000000000E+00  0.14999999963E+04  0.15000000000E+04  0.10566000000E+00 0. -1.
        994   -1    0    0    0    0 -0.00000000000E+00 -0.00000000000E+00  0.11368683772E-12  0.17120000000E+03  0.17120000000E+03 0.  0.
         13    1    1    2    0    0  0.86495332359E+02  0.12283932063E+02  0.22047466126E+03  0.23715274599E+03  0.10566000000E+00 0. -1.
        994    1    1    2    0    0  0.20886469059E+02 -0.33767773032E+02  0.28310727857E+02  0.17800967501E+03  0.17120000000E+03 0.  0.
        998    1    1    2    0    0 -0.10738180142E+03  0.21483840969E+02  0.12512146072E+04  0.12560375790E+04  0.10000000000E+02 0. -1.
</event>
<event>
 5    1  0.9130022E-009  0.3833210E+03  0.7957747E-01  0.3436825E+00
         13   -1    0    0    0    0  0.00000000000E+00  0.00000000000E+00  0.14999999963E+04  0.15000000000E+04  0.10566000000E+00 0.  1.
        994   -1    0    0    0    0 -0.00000000000E+00 -0.00000000000E+00  0.11368683772E-12  0.17120000000E+03  0.17120000000E+03 0.  0.
         13    1    1    2    0    0 -0.17093036726E+02 -0.18313846572E+02  0.11114639746E+03  0.11393463790E+03  0.10566000000E+00 0.  1.
        994    1    1    2    0    0  0.20392164356E+02  0.28541168763E+02  0.65453360476E+01  0.17487915858E+03  0.17120000000E+03 0.  0.
        998    1    1    2    0    0 -0.32991276300E+01 -0.10227322191E+02  0.13823082628E+04  0.13823862035E+04  0.10000000000E+02 0.  1.
</event>
<event>
 5    1  0.9130022E-009  0.3732479E+03  0.7957747E-01  0.3481096E+00
         13   -1    0    0    0    0  0.00000000000E+00  0.00000000000E+00  0.14999999963E+04  0.15000000000E+04  0.10566000000E+00 0.  1.
        994   -1    0    0    0    0 -0.00000000000E+00 -0.00000000000E+00  0.11368683772E-12  0.17120000000E+03  0.17120000000E+03 0.  0.
         13    1    1    2    0    0 -0.47303577933E+01  0.14233524809E+02  0.11444595081E+02  0.18866887236E+02  0.10566000000E+00 0.  1.
        994    1    1    2    0    0  0.72236152156E+01 -0.97392170283E+01  0.80841499007E+01  0.17181916786E+03  0.17120000000E+03 0.  0.
        998    1    1    2    0    0 -0.24932574223E+01 -0.44943077810E+01  0.14804712513E+04  0.14805139449E+04  0.10000000000E+02 0.  1.
</event>
<event>
 5    1  0.9130022E-009  0.3841357E+03  0.7957747E-01  0.3433346E+00
         13   -1    0    0    0    0  0.00000000000E+00  0.00000000000E+00  0.14999999963E+04  0.15000000000E+04  0.10566000000E+00 0. -1.
        994   -1    0    0    0    0 -0.00000000000E+00 -0.00000000000E+00  0.11368683772E-12  0.17120000000E+03  0.17120000000E+03 0.  0.
         13    1    1    2    0    0 -0.18085071497E+02  0.50273784817E+01  0.79790276529E+02  0.81968553349E+02  0.10566000000E+00 0. -1.
        994    1    1    2    0    0  0.32264030358E+02  0.26947943038E+02  0.79096644234E+01  0.17646291984E+03  0.17120000000E+03 0.  0.
        998    1    1    2    0    0 -0.14178958862E+02 -0.31975321520E+02  0.14123000553E+04  0.14127685268E+04  0.10000000000E+02 0. -1.
</event>
<event>
 5    1  0.9130022E-009  0.3787190E+03  0.7957747E-01  0.3456755E+00
         13   -1    0    0    0    0  0.00000000000E+00  0.00000000000E+00  0.14999999963E+04  0.15000000000E+04  0.10566000000E+00 0. -1.
        994   -1    0    0    0    0 -0.00000000000E+00 -0.00000000000E+00  0.11368683772E-12  0.17120000000E+03  0.17120000000E+03 0.  0.
         13    1    1    2    0    0 -0.10421584562E+03 -0.29129791218E+02  0.49631623331E+03  0.50797569019E+03  0.10566000000E+00 0. -1.
        994    1    1    2    0    0  0.21980435274E+02  0.17434336636E+02  0.18469201535E+02  0.17446388461E+03  0.17120000000E+03 0.  0.
        998    1    1    2    0    0  0.82235410346E+02  0.11695454582E+02  0.98521456144E+03  0.98876042520E+03  0.10000000000E+02 0. -1.
</event>
<event>
 5    1  0.9130022E-009  0.3844988E+03  0.7957747E-01  0.3431801E+00
         13   -1    0    0    0    0  0.00000000000E+00  0.00000000000E+00  0.14999999963E+04  0.15000000000E+04  0.10566000000E+00 0. -1.
        994   -1    0    0    0    0 -0.00000000000E+00 -0.00000000000E+00  0.11368683772E-12  0.17120000000E+03  0.17120000000E+03 0.  0.
         13    1    1    2    0    0  0.31883112827E+01  0.17829520843E+02  0.83703878984E+02  0.85641156364E+02  0.10566000000E+00 0. -1.
        994    1    1    2    0    0 -0.17239269092E+01 -0.17511903024E+02  0.28998142734E+01  0.17212637100E+03  0.17120000000E+03 0.  0.
        998    1    1    2    0    0 -0.14643843735E+01 -0.31761781890E+00  0.14133963030E+04  0.14134324726E+04  0.10000000000E+02 0. -1.
</event>
<event>
 5    1  0.9130022E-009  0.3762673E+03  0.7957747E-01  0.3467574E+00
         13   -1    0    0    0    0  0.00000000000E+00  0.00000000000E+00  0.14999999963E+04  0.15000000000E+04  0.10566000000E+00 0. -1.
        994   -1    0    0    0    0 -0.00000000000E+00 -0.00000000000E+00  0.11368683772E-12  0.17120000000E+03  0.17120000000E+03 0.  0.
         13    1    1    2    0    0  0.17842493177E+02 -0.17174708826E+02  0.55943711797E+02  0.61180350111E+02  0.10566000000E+00 0. -1.
        994    1    1    2    0    0 -0.38430482116E+01 -0.40391899803E+02  0.11621926962E+02  0.17632578874E+03  0.17120000000E+03 0.  0.
        998    1    1    2    0    0 -0.13999444966E+02  0.57566608629E+02  0.14324343575E+04  0.14336938611E+04  0.10000000000E+02 0. -1.
</event>
<event>
 5    1  0.9130022E-009  0.3797433E+03  0.7957747E-01  0.3452277E+00
         13   -1    0    0    0    0  0.00000000000E+00  0.00000000000E+00  0.14999999963E+04  0.15000000000E+04  0.10566000000E+00 0. -1.
        994   -1    0    0    0    0 -0.00000000000E+00 -0.00000000000E+00  0.11368683772E-12  0.17120000000E+03  0.17120000000E+03 0.  0.
         13    1    1    2    0    0 -0.32542957341E+02  0.21327402541E+02  0.14149915111E+03  0.14675122862E+03  0.10566000000E+00 0. -1.
        994    1    1    2    0    0  0.43503096236E+02 -0.43468387382E+02  0.17022067454E+02  0.18270525680E+03  0.17120000000E+03 0.  0.
        998    1    1    2    0    0 -0.10960138895E+02  0.22140984841E+02  0.13414787777E+04  0.13417435146E+04  0.10000000000E+02 0. -1.
</event>
<event>
 5    1  0.9130022E-009  0.3808144E+03  0.7957747E-01  0.3447620E+00
         13   -1    0    0    0    0  0.00000000000E+00  0.00000000000E+00  0.14999999963E+04  0.15000000000E+04  0.10566000000E+00 0.  1.
        994   -1    0    0    0    0 -0.00000000000E+00 -0.00000000000E+00  0.11368683772E-12  0.17120000000E+03  0.17120000000E+03 0.  0.
         13    1    1    2    0    0 -0.76409070943E+01 -0.45536161363E+02  0.27278383346E+03  0.27666397744E+03  0.10566000000E+00 0.  1.
        994    1    1    2    0    0  0.48446476139E+01  0.30753323911E+02  0.69607162495E+01  0.17414686076E+03  0.17120000000E+03 0.  0.
        998    1    1    2    0    0  0.27962594804E+01  0.14782837452E+02  0.12202554466E+04  0.12203891618E+04  0.10000000000E+02 0.  1.
</event>
<event>
 5    1  0.9130022E-009  0.3841663E+03  0.7957747E-01  0.3433216E+00
         13   -1    0    0    0    0  0.00000000000E+00  0.00000000000E+00  0.14999999963E+04  0.15000000000E+04  0.10566000000E+00 0. -1.
        994   -1    0    0    0    0 -0.00000000000E+00 -0.00000000000E+00  0.11368683772E-12  0.17120000000E+03  0.17120000000E+03 0.  0.
         13    1    1    2    0    0 -0.54615429171E+01  0.16467560222E+02  0.81246458324E+02  0.83078319344E+02  0.10566000000E+00 0. -1.
        994    1    1    2    0    0  0.88733138447E+01  0.78349972793E+01  0.25068216120E+01  0.17162705799E+03  0.17120000000E+03 0.  0.
        998    1    1    2    0    0 -0.34117709276E+01 -0.24302557501E+02  0.14162467163E+04  0.14164946227E+04  0.10000000000E+02 0. -1.
</event>
<event>
 5    1  0.9130022E-009  0.3829080E+03  0.7957747E-01  0.3438593E+00
         13   -1    0    0    0    0  0.00000000000E+00  0.00000000000E+00  0.14999999963E+04  0.15000000000E+04  0.10566000000E+00 0.  1.
        994   -1    0    0    0    0 -0.00000000000E+00 -0.00000000000E+00  0.11368683772E-12  0.17120000000E+03  0.17120000000E+03 0.  0.
         13    1    1    2    0    0 -0.10274113874E+02  0.44610754215E+02  0.50782708824E+02  0.68370837987E+02  0.10566000000E+00 0.  1.
        994    1    1    2    0    0  0.17575721174E+02 -0.37980895693E+02  0.24376121249E+02  0.17791877276E+03  0.17120000000E+03 0.  0.
        998    1    1    2    0    0 -0.73016072997E+01 -0.66298585228E+01  0.14248411662E+04  0.14249103893E+04  0.10000000000E+02 0.  1.
</event>
<event>
 5    1  0.9130022E-009  0.3827509E+03  0.7957747E-01  0.3439267E+00
         13   -1    0    0    0    0  0.00000000000E+00  0.00000000000E+00  0.14999999963E+04  0.15000000000E+04  0.10566000000E+00 0. -1.
        994   -1    0    0    0    0 -0.00000000000E+00 -0.00000000000E+00  0.11368683772E-12  0.17120000000E+03  0.17120000000E+03 0.  0.
         13    1    1    2    0    0 -0.30558540129E+02 -0.37411242220E+01  0.15113929216E+03  0.15424304582E+03  0.10566000000E+00 0. -1.
        994    1    1    2    0    0  0.35565087954E+02 -0.13005993703E+01  0.69581720778E+01  0.17499835199E+03  0.17120000000E+03 0.  0.
        998    1    1    2    0    0 -0.50065478254E+01  0.50417235923E+01  0.13419025320E+04  0.13419586022E+04  0.10000000000E+02 0. -1.
</event>
<event>
 5    1  0.9130022E-009  0.3826870E+03  0.7957747E-01  0.3439541E+00
         13   -1    0    0    0    0  0.00000000000E+00  0.00000000000E+00  0.14999999963E+04  0.15000000000E+04  0.10566000000E+00 0. -1.
        994   -1    0    0    0    0 -0.00000000000E+00 -0.00000000000E+00  0.11368683772E-12  0.17120000000E+03  0.17120000000E+03 0.  0.
         13    1    1    2    0    0  0.25900889979E+02 -0.12274159505E+02  0.13025218020E+03  0.13336848467E+03  0.10566000000E+00 0. -1.
        994    1    1    2    0    0 -0.31917819924E+02  0.13241476917E+02  0.67495602741E+01  0.17478295255E+03  0.17120000000E+03 0.  0.
        998    1    1    2    0    0  0.60169299454E+01 -0.96731741163E+00  0.13629982558E+04  0.13630485628E+04  0.10000000000E+02 0. -1.
</event>
<event>
 5    1  0.9130022E-009  0.3848757E+03  0.7957747E-01  0.3430199E+00
         13   -1    0    0    0    0  0.00000000000E+00  0.00000000000E+00  0.14999999963E+04  0.15000000000E+04  0.10566000000E+00 0. -1.
        994   -1    0    0    0    0 -0.00000000000E+00 -0.00000000000E+00  0.11368683772E-12  0.17120000000E+03  0.17120000000E+03 0.  0.
         13    1    1    2    0    0  0.49092165160E+01  0.90928285884E+01  0.31780257523E+02  0.33418196702E+02  0.10566000000E+00 0. -1.
        994    1    1    2    0    0 -0.11787658177E+02  0.22475235421E+01  0.21657450525E+01  0.17163371085E+03  0.17120000000E+03 0.  0.
        998    1    1    2    0    0  0.68784416612E+01 -0.11340352130E+02  0.14660539937E+04  0.14661480925E+04  0.10000000000E+02 0. -1.
</event>
<event>
 5    1  0.9130022E-009  0.3788019E+03  0.7957747E-01  0.3456392E+00
         13   -1    0    0    0    0  0.00000000000E+00  0.00000000000E+00  0.14999999963E+04  0.15000000000E+04  0.10566000000E+00 0.  1.
        994   -1    0    0    0    0 -0.00000000000E+00 -0.00000000000E+00  0.11368683772E-12  0.17120000000E+03  0.17120000000E+03 0.  0.
         13    1    1    2    0    0  0.14315429119E+02 -0.20124766658E+02  0.61590633738E+02  0.66357780796E+02  0.10566000000E+00 0.  1.
        994    1    1    2    0    0 -0.40192629063E+01  0.21607330444E+02  0.63620027732E+01  0.17272216500E+03  0.17120000000E+03 0.  0.
        998    1    1    2    0    0 -0.10296166213E+02 -0.14825637860E+01  0.14320473598E+04  0.14321200542E+04  0.10000000000E+02 0.  1.
</event>
<event>
 5    1  0.9130022E-009  0.3780506E+03  0.7957747E-01  0.3459691E+00
         13   -1    0    0    0    0  0.00000000000E+00  0.00000000000E+00  0.14999999963E+04  0.15000000000E+04  0.10566000000E+00 0.  1.
        994   -1    0    0    0    0 -0.00000000000E+00 -0.00000000000E+00  0.11368683772E-12  0.17120000000E+03  0.17120000000E+03 0.  0.
         13    1    1    2    0    0 -0.31670507141E+01  0.29419989886E+02  0.83219936609E+02  0.88324034263E+02  0.10566000000E+00 0.  1.
        994    1    1    2    0    0  0.74082654452E+01 -0.18855434086E+02  0.65025441604E+01  0.17251705096E+03  0.17120000000E+03 0.  0.
        998    1    1    2    0    0 -0.42412147311E+01 -0.10564555800E+02  0.14102775155E+04  0.14103589148E+04  0.10000000000E+02 0.  1.
</event>
<event>
 5    1  0.9130022E-009  0.3757603E+03  0.7957747E-01  0.3469829E+00
         13   -1    0    0    0    0  0.00000000000E+00  0.00000000000E+00  0.14999999963E+04  0.15000000000E+04  0.10566000000E+00 0.  1.
        994   -1    0    0    0    0 -0.00000000000E+00 -0.00000000000E+00  0.11368683772E-12  0.17120000000E+03  0.17120000000E+03 0.  0.
         13    1    1    2    0    0  0.91815191703E+01  0.92700632295E+01  0.10604548559E+02  0.16813743805E+02  0.10566000000E+00 0.  1.
        994    1    1    2    0    0 -0.10918513695E+02 -0.91621954754E+01  0.69779143295E+01  0.17193397295E+03  0.17120000000E+03 0.  0.
        998    1    1    2    0    0  0.17369945251E+01 -0.10786775414E+00  0.14824175334E+04  0.14824522832E+04  0.10000000000E+02 0.  1.
</event>
<event>
 5    1  0.9130022E-009  0.3827076E+03  0.7957747E-01  0.3439453E+00
         13   -1    0    0    0    0  0.00000000000E+00  0.00000000000E+00  0.14999999963E+04  0.15000000000E+04  0.10566000000E+00 0.  1.
        994   -1    0    0    0    0 -0.00000000000E+00 -0.00000000000E+00  0.11368683772E-12  0.17120000000E+03  0.17120000000E+03 0.  0.
         13    1    1    2    0    0 -0.75009644022E+01 -0.12400952603E+02  0.42339994884E+02  0.44751920889E+02  0.10566000000E+00 0.  1.
        994    1    1    2    0    0 -0.35402883388E+02 -0.50240926507E+01  0.70205315620E+01  0.17503523509E+03  0.17120000000E+03 0.  0.
        998    1    1    2    0    0  0.42903847790E+02  0.17425045254E+02  0.14506394698E+04  0.14514128440E+04  0.10000000000E+02 0.  1.
</event>
<event>
 5    1  0.9130022E-009  0.3805863E+03  0.7957747E-01  0.3448610E+00
         13   -1    0    0    0    0  0.00000000000E+00  0.00000000000E+00  0.14999999963E+04  0.15000000000E+04  0.10566000000E+00 0.  1.
        994   -1    0    0    0    0 -0.00000000000E+00 -0.00000000000E+00  0.11368683772E-12  0.17120000000E+03  0.17120000000E+03 0.  0.
         13    1    1    2    0    0  0.64754094434E+02 -0.12166401384E+03  0.82268298853E+03  0.83414779013E+03  0.10566000000E+00 0.  1.
        994    1    1    2    0    0 -0.87872382110E+02  0.12263419977E+03  0.83936819742E+02  0.24313685899E+03  0.17120000000E+03 0.  0.
        998    1    1    2    0    0  0.23118287676E+02 -0.97018593019E+00  0.59338018801E+03  0.59391535088E+03  0.10000000000E+02 0.  1.
</event>
<event>
 5    1  0.9130022E-009  0.3853372E+03  0.7957747E-01  0.3428244E+00
         13   -1    0    0    0    0  0.00000000000E+00  0.00000000000E+00  0.14999999963E+04  0.15000000000E+04  0.10566000000E+00 0.  1.
        994   -1    0    0    0    0 -0.00000000000E+00 -0.00000000000E+00  0.11368683772E-12  0.17120000000E+03  0.17120000000E+03 0.  0.
         13    1    1    2    0    0 -0.89345925791E+01  0.10061973880E+02  0.61241547087E+02  0.62702539953E+02  0.10566000000E+00 0.  1.
        994    1    1    2    0    0  0.15632253623E+02 -0.11132172490E+01  0.22700814021E+01  0.17193079967E+03  0.17120000000E+03 0.  0.
        998    1    1    2    0    0 -0.66976610437E+01 -0.89487566313E+01  0.14364883678E+04  0.14365666604E+04  0.10000000000E+02 0.  1.
</event>
<event>
 5    1  0.9130022E-009  0.3780612E+03  0.7957747E-01  0.3459644E+00
         13   -1    0    0    0    0  0.00000000000E+00  0.00000000000E+00  0.14999999963E+04  0.15000000000E+04  0.10566000000E+00 0. -1.
        994   -1    0    0    0    0 -0.00000000000E+00 -0.00000000000E+00  0.11368683772E-12  0.17120000000E+03  0.17120000000E+03 0.  0.
         13    1    1    2    0    0  0.12793398873E+02  0.13084893657E+02  0.30547304456E+02  0.35609471637E+02  0.10566000000E+00 0. -1.
        994    1    1    2    0    0 -0.10396078597E+02 -0.90139331158E+01  0.57523062570E+01  0.17184835893E+03  0.17120000000E+03 0.  0.
        998    1    1    2    0    0 -0.23973202754E+01 -0.40709605408E+01  0.14637003856E+04  0.14637421694E+04  0.10000000000E+02 0. -1.
</event>
<event>
 5    1  0.9130022E-009  0.3850419E+03  0.7957747E-01  0.3429495E+00
         13   -1    0    0    0    0  0.00000000000E+00  0.00000000000E+00  0.14999999963E+04  0.15000000000E+04  0.10566000000E+00 0. -1.
        994   -1    0    0    0    0 -0.00000000000E+00 -0.00000000000E+00  0.11368683772E-12  0.17120000000E+03  0.17120000000E+03 0.  0.
         13    1    1    2    0    0  0.11228870961E+02 -0.11745187131E+02  0.77989616795E+02  0.79664474239E+02  0.10566000000E+00 0. -1.
        994    1    1    2    0    0 -0.17787719365E+02  0.80191141633E+01  0.28622001020E+01  0.17233206707E+03  0.17120000000E+03 0.  0.
        998    1    1    2    0    0  0.65588484041E+01  0.37260729681E+01  0.14191481794E+04  0.14192034587E+04  0.10000000000E+02 0. -1.
</event>
<event>
 5    1  0.9130022E-009  0.3825959E+03  0.7957747E-01  0.3439933E+00
         13   -1    0    0    0    0  0.00000000000E+00  0.00000000000E+00  0.14999999963E+04  0.15000000000E+04  0.10566000000E+00 0. -1.
        994   -1    0    0    0    0 -0.00000000000E+00 -0.00000000000E+00  0.11368683772E-12  0.17120000000E+03  0.17120000000E+03 0.  0.
         13    1    1    2    0    0 -0.10202985455E+01  0.27292679017E+02  0.12308471759E+03  0.12607850810E+03  0.10566000000E+00 0. -1.
        994    1    1    2    0    0 -0.53299724686E+01 -0.26050029262E+02  0.51753474160E+01  0.17332984986E+03  0.17120000000E+03 0.  0.
        998    1    1    2    0    0  0.63502710142E+01 -0.12426497547E+01  0.13717399313E+04  0.13717916420E+04  0.10000000000E+02 0. -1.
</event>
<event>
 5    1  0.9130022E-009  0.3844987E+03  0.7957747E-01  0.3431801E+00
         13   -1    0    0    0    0  0.00000000000E+00  0.00000000000E+00  0.14999999963E+04  0.15000000000E+04  0.10566000000E+00 0.  1.
        994   -1    0    0    0    0 -0.00000000000E+00 -0.00000000000E+00  0.11368683772E-12  0.17120000000E+03  0.17120000000E+03 0.  0.
         13    1    1    2    0    0  0.13220384044E+02 -0.10584456460E+02  0.72575563917E+02  0.74525384364E+02  0.10566000000E+00 0.  1.
        994    1    1    2    0    0 -0.19650234464E+02  0.53603960780E+01  0.32469746515E+01  0.17243795523E+03  0.17120000000E+03 0.  0.
        998    1    1    2    0    0  0.64298504203E+01  0.52240603816E+01  0.14241774577E+04  0.14242366604E+04  0.10000000000E+02 0.  1.
</event>
<event>
 5    1  0.9130022E-009  0.3795950E+03  0.7957747E-01  0.3452924E+00
         13   -1    0    0    0    0  0.00000000000E+00  0.00000000000E+00  0.14999999963E+04  0.15000000000E+04  0.10566000000E+00 0.  1.
        994   -1    0    0    0    0 -0.00000000000E+00 -0.00000000000E+00  0.11368683772E-12  0.17120000000E+03  0.17120000000E+03 0.  0.
         13    1    1    2    0    0  0.22495158013E+02 -0.11759620295E+03  0.34087871178E+03  0.36129379512E+03  0.10566000000E+00 0.  1.
        994    1    1    2    0    0 -0.23189052729E+02  0.11312249391E+03  0.66093093220E+02  0.21682289493E+03  0.17120000000E+03 0.  0.
        998    1    1    2    0    0  0.69389471586E+00  0.44737090465E+01  0.10930281913E+04  0.10930833099E+04  0.10000000000E+02 0.  0.
</event>
<event>
 5    1  0.9130022E-009  0.3837655E+03  0.7957747E-01  0.3434925E+00
         13   -1    0    0    0    0  0.00000000000E+00  0.00000000000E+00  0.14999999963E+04  0.15000000000E+04  0.10566000000E+00 0. -1.
        994   -1    0    0    0    0 -0.00000000000E+00 -0.00000000000E+00  0.11368683772E-12  0.17120000000E+03  0.17120000000E+03 0.  0.
         13    1    1    2    0    0 -0.11964826626E+01 -0.10173384953E+02  0.22138088406E+02  0.24393348570E+02  0.10566000000E+00 0. -1.
        994    1    1    2    0    0  0.90755176772E+00  0.13704642730E+02  0.28673974407E+01  0.17177398770E+03  0.17120000000E+03 0.  0.
        998    1    1    2    0    0  0.28893089486E+00 -0.35312577770E+01  0.14749945104E+04  0.14750326637E+04  0.10000000000E+02 0. -1.
</event>
<event>
 5    1  0.9130022E-009  0.3851852E+03  0.7957747E-01  0.3428887E+00
         13   -1    0    0    0    0  0.00000000000E+00  0.00000000000E+00  0.14999999963E+04  0.15000000000E+04  0.10566000000E+00 0. -1.
        994   -1    0    0    0    0 -0.00000000000E+00 -0.00000000000E+00  0.11368683772E-12  0.17120000000E+03  0.17120000000E+03 0.  0.
         13    1    1    2    0    0 -0.30792706795E+02 -0.25632701009E+02  0.33300181979E+02  0.52097403358E+02  0.10566000000E+00 0. -1.
        994    1    1    2    0    0  0.35005043360E+02  0.25163946207E+02  0.26101964997E+02  0.17846380537E+03  0.17120000000E+03 0.  0.
        998    1    1    2    0    0 -0.42123365651E+01  0.46875480117E+00  0.14405978493E+04  0.14406387913E+04  0.10000000000E+02 0. -1.
</event>
<event>
 5    1  0.9130022E-009  0.3791705E+03  0.7957747E-01  0.3454778E+00
         13   -1    0    0    0    0  0.00000000000E+00  0.00000000000E+00  0.14999999963E+04  0.15000000000E+04  0.10566000000E+00 0.  1.
        994   -1    0    0    0    0 -0.00000000000E+00 -0.00000000000E+00  0.11368683772E-12  0.17120000000E+03  0.17120000000E+03 0.  0.
         13    1    1    2    0    0  0.70436989348E+02  0.35277237114E+02  0.47411325796E+03  0.48061340542E+03  0.10566000000E+00 0.  1.
        994    1    1    2    0    0 -0.66604894819E+02 -0.38977429562E+02  0.24781875353E+02  0.18941761633E+03  0.17120000000E+03 0.  0.
        998    1    1    2    0    0 -0.38320945290E+01  0.37001924484E+01  0.10011048630E+04  0.10011689783E+04  0.10000000000E+02 0. -1.
</event>
<event>
 5    1  0.9130022E-009  0.3936556E+03  0.7957747E-01  0.3393772E+00
         13   -1    0    0    0    0  0.00000000000E+00  0.00000000000E+00  0.14999999963E+04  0.15000000000E+04  0.10566000000E+00 0.  1.
        994   -1    0    0    0    0 -0.00000000000E+00 -0.00000000000E+00  0.11368683772E-12  0.17120000000E+03  0.17120000000E+03 0.  0.
         13    1    1    2    0    0 -0.28964410815E+02 -0.86085953715E+01  0.10036450644E+02  0.31840014349E+02  0.10566000000E+00 0.  1.
        994    1    1    2    0    0 -0.10634842176E+02 -0.13683337549E+01  0.24479953430E+02  0.17327342648E+03  0.17120000000E+03 0.  0.
        998    1    1    2    0    0  0.39599252991E+02  0.99769291264E+01  0.14654835922E+04  0.14660865592E+04  0.10000000000E+02 0.  1.
</event>
<event>
 5    1  0.9130022E-009  0.3806252E+03  0.7957747E-01  0.3448441E+00
         13   -1    0    0    0    0  0.00000000000E+00  0.00000000000E+00  0.14999999963E+04  0.15000000000E+04  0.10566000000E+00 0. -1.
        994   -1    0    0    0    0 -0.00000000000E+00 -0.00000000000E+00  0.11368683772E-12  0.17120000000E+03  0.17120000000E+03 0.  0.
         13    1    1    2    0    0 -0.39519525797E+02 -0.27912881250E+02  0.27525472732E+03  0.27947468210E+03  0.10566000000E+00 0. -1.
        994    1    1    2    0    0  0.34208002158E+02  0.19244697388E+02  0.89743390521E+01  0.17587076093E+03  0.17120000000E+03 0.  0.
        998    1    1    2    0    0  0.53115236383E+01  0.86681838615E+01  0.12157709299E+04  0.12158545570E+04  0.10000000000E+02 0. -1.
</event>
<event>
 5    1  0.9130022E-009  0.3709093E+03  0.7957747E-01  0.3491722E+00
         13   -1    0    0    0    0  0.00000000000E+00  0.00000000000E+00  0.14999999963E+04  0.15000000000E+04  0.10566000000E+00 0.  1.
        994   -1    0    0    0    0 -0.00000000000E+00 -0.00000000000E+00  0.11368683772E-12  0.17120000000E+03  0.17120000000E+03 0.  0.
         13    1    1    2    0    0  0.11780476003E+02  0.54964305972E+01  0.55294347544E+01  0.14127143268E+02  0.10566000000E+00 0.  1.
        994    1    1    2    0    0 -0.12361477112E+02 -0.49803331622E+01  0.94069850432E+01  0.17197540871E+03  0.17120000000E+03 0.  0.
        998    1    1    2    0    0  0.58100110923E+00 -0.51609743504E+00  0.14850635765E+04  0.14850974480E+04  0.10000000000E+02 0.  1.
</event>
<event>
 5    1  0.9130022E-009  0.3706462E+03  0.7957747E-01  0.3492926E+00
         13   -1    0    0    0    0  0.00000000000E+00  0.00000000000E+00  0.14999999963E+04  0.15000000000E+04  0.10566000000E+00 0. -1.
        994   -1    0    0    0    0 -0.00000000000E+00 -0.00000000000E+00  0.11368683772E-12  0.17120000000E+03  0.17120000000E+03 0.  0.
         13    1    1    2    0    0 -0.24403418995E+02  0.42583510263E+02  0.98298276940E+02  0.10987012614E+03  0.10566000000E+00 0. -1.
        994    1    1    2    0    0  0.13632995258E+02 -0.43207253658E+02  0.18508260459E+02  0.17805819564E+03  0.17120000000E+03 0.  0.
        998    1    1    2    0    0  0.10770423737E+02  0.62374339501E+00  0.13831934589E+04  0.13832716782E+04  0.10000000000E+02 0. -1.
</event>
<event>
 5    1  0.9130022E-009  0.3710805E+03  0.7957747E-01  0.3490940E+00
         13   -1    0    0    0    0  0.00000000000E+00  0.00000000000E+00  0.14999999963E+04  0.15000000000E+04  0.10566000000E+00 0. -1.
        994   -1    0    0    0    0 -0.00000000000E+00 -0.00000000000E+00  0.11368683772E-12  0.17120000000E+03  0.17120000000E+03 0.  0.
         13    1    1    2    0    0 -0.17163752375E+02 -0.10190085324E+02  0.19240949043E+02  0.27724673462E+02  0.10566000000E+00 0. -1.
        994    1    1    2    0    0  0.56091996479E+01  0.14480086865E+02  0.95364596847E+01  0.17216712839E+03  0.17120000000E+03 0.  0.
        998    1    1    2    0    0  0.11554552727E+02 -0.42900015414E+01  0.14712225876E+04  0.14713081981E+04  0.10000000000E+02 0. -1.
</event>
<event>
 5    1  0.9130022E-009  0.3832550E+03  0.7957747E-01  0.3437107E+00
         13   -1    0    0    0    0  0.00000000000E+00  0.00000000000E+00  0.14999999963E+04  0.15000000000E+04  0.10566000000E+00 0. -1.
        994   -1    0    0    0    0 -0.00000000000E+00 -0.00000000000E+00  0.11368683772E-12  0.17120000000E+03  0.17120000000E+03 0.  0.
         13    1    1    2    0    0  0.87088109888E+01 -0.13558084905E+02  0.51758891612E+02  0.54209400292E+02  0.10566000000E+00 0. -1.
        994    1    1    2    0    0 -0.93150447615E+01  0.41347019232E+01  0.28425750211E+01  0.17152663365E+03  0.17120000000E+03 0.  0.
        998    1    1    2    0    0  0.60623377273E+00  0.94233829820E+01  0.14453985296E+04  0.14454639661E+04  0.10000000000E+02 0. -1.
</event>
<event>
 5    1  0.9130022E-009  0.3996083E+03  0.7957747E-01  0.3369985E+00
         13   -1    0    0    0    0  0.00000000000E+00  0.00000000000E+00  0.14999999963E+04  0.15000000000E+04  0.10566000000E+00 0. -1.
        994   -1    0    0    0    0 -0.00000000000E+00 -0.00000000000E+00  0.11368683772E-12  0.17120000000E+03  0.17120000000E+03 0.  0.
         13    1    1    2    0    0 -0.63964956491E+02 -0.60977349844E+02  0.13239335079E+03  0.15917840102E+03  0.10566000000E+00 0. -1.
        994    1    1    2    0    0  0.73504406233E+02  0.15524778122E+02  0.49959409052E+02  0.19351821368E+03  0.17120000000E+03 0.  0.
        998    1    1    2    0    0 -0.95394497419E+01  0.45452571722E+02  0.13176472364E+04  0.13185033853E+04  0.10000000000E+02 0. -1.
</event>
<event>
 5    1  0.9130022E-009  0.3721403E+03  0.7957747E-01  0.3486112E+00
         13   -1    0    0    0    0  0.00000000000E+00  0.00000000000E+00  0.14999999963E+04  0.15000000000E+04  0.10566000000E+00 0.  1.
        994   -1    0    0    0    0 -0.00000000000E+00 -0.00000000000E+00  0.11368683772E-12  0.17120000000E+03  0.17120000000E+03 0.  0.
         13    1    1    2    0    0  0.37594212913E+02  0.76509797268E+01  0.54302086564E+02  0.66487518412E+02  0.10566000000E+00 0.  1.
        994    1    1    2    0    0 -0.39204779800E+02 -0.65154994225E+01  0.17659146172E+02  0.17663734581E+03  0.17120000000E+03 0.  0.
        998    1    1    2    0    0  0.16105668875E+01 -0.11354803044E+01  0.14280387635E+04  0.14280751358E+04  0.10000000000E+02 0.  1.
</event>
<event>
 5    1  0.9130022E-009  0.3815599E+03  0.7957747E-01  0.3444395E+00
         13   -1    0    0    0    0  0.00000000000E+00  0.00000000000E+00  0.14999999963E+04  0.15000000000E+04  0.10566000000E+00 0.  1.
        994   -1    0    0    0    0 -0.00000000000E+00 -0.00000000000E+00  0.11368683772E-12  0.17120000000E+03  0.17120000000E+03 0.  0.
         13    1    1    2    0    0 -0.92502247688E+01 -0.13212095938E+02  0.38694237574E+02  0.41921132175E+02  0.10566000000E+00 0.  1.
        994    1    1    2    0    0  0.83147260265E+01 -0.19057427010E+01  0.35898537500E+01  0.17144997397E+03  0.17120000000E+03 0.  0.
        998    1    1    2    0    0  0.93549874224E+00  0.15117838639E+02  0.14577159050E+04  0.14578288939E+04  0.10000000000E+02 0.  1.
</event>
<event>
 5    1  0.9130022E-009  0.3849268E+03  0.7957747E-01  0.3429983E+00
         13   -1    0    0    0    0  0.00000000000E+00  0.00000000000E+00  0.14999999963E+04  0.15000000000E+04  0.10566000000E+00 0.  1.
        994   -1    0    0    0    0 -0.00000000000E+00 -0.00000000000E+00  0.11368683772E-12  0.17120000000E+03  0.17120000000E+03 0.  0.
         13    1    1    2    0    0  0.16811635166E+02 -0.23011877721E+01  0.80123967763E+02  0.81901086172E+02  0.10566000000E+00 0.  1.
        994    1    1    2    0    0 -0.26464076156E+02 -0.23845195427E+02  0.58517544421E+01  0.17496463557E+03  0.17120000000E+03 0.  0.
        998    1    1    2    0    0  0.96524409906E+01  0.26146383200E+02  0.14140242741E+04  0.14143342783E+04  0.10000000000E+02 0.  1.
</event>
<event>
 5    1  0.9130022E-009  0.3851013E+03  0.7957747E-01  0.3429243E+00
         13   -1    0    0    0    0  0.00000000000E+00  0.00000000000E+00  0.14999999963E+04  0.15000000000E+04  0.10566000000E+00 0.  1.
        994   -1    0    0    0    0 -0.00000000000E+00 -0.00000000000E+00  0.11368683772E-12  0.17120000000E+03  0.17120000000E+03 0.  0.
         13    1    1    2    0    0  0.80273062057E+01 -0.11065680099E+02  0.63930579456E+02  0.65375967102E+02  0.10566000000E+00 0.  1.
        994    1    1    2    0    0 -0.49704503921E+01 -0.70155470306E+01  0.18229220944E+01  0.17142545413E+03  0.17120000000E+03 0.  0.
        998    1    1    2    0    0 -0.30568558136E+01  0.18081227130E+02  0.14342464947E+04  0.14343985788E+04  0.10000000000E+02 0.  1.
</event>
<event>
 5    1  0.9130022E-009  0.3710409E+03  0.7957747E-01  0.3491121E+00
         13   -1    0    0    0    0  0.00000000000E+00  0.00000000000E+00  0.14999999963E+04  0.15000000000E+04  0.10566000000E+00 0. -1.
        994   -1    0    0    0    0 -0.00000000000E+00 -0.00000000000E+00  0.11368683772E-12  0.17120000000E+03  0.17120000000E+03 0.  0.
         13    1    1    2    0    0  0.53551664423E+02 -0.59106822806E+02  0.27826437566E+03  0.28946929231E+03  0.10566000000E+00 0. -1.
        994    1    1    2    0    0 -0.47403332858E+02  0.16529967078E+02  0.20386406546E+02  0.17956993443E+03  0.17120000000E+03 0.  0.
        998    1    1    2    0    0 -0.61483315647E+01  0.42576855728E+02  0.12013492141E+04  0.12021607733E+04  0.10000000000E+02 0. -1.
</event>
<event>
 5    1  0.9130022E-009  0.3716129E+03  0.7957747E-01  0.3488511E+00
         13   -1    0    0    0    0  0.00000000000E+00  0.00000000000E+00  0.14999999963E+04  0.15000000000E+04  0.10566000000E+00 0.  1.
        994   -1    0    0    0    0 -0.00000000000E+00 -0.00000000000E+00  0.11368683772E-12  0.17120000000E+03  0.17120000000E+03 0.  0.
         13    1    1    2    0    0 -0.19539833587E+02  0.50376293500E+02  0.10125533865E+03  0.11477033943E+03  0.10566000000E+00 0.  1.
        994    1    1    2    0    0  0.44321670434E+02 -0.70417418617E+02  0.36550119336E+02  0.19382562921E+03  0.17120000000E+03 0.  0.
        998    1    1    2    0    0 -0.24781836847E+02  0.20041125117E+02  0.13621945383E+04  0.13626040314E+04  0.10000000000E+02 0.  1.
</event>
<event>
 5    1  0.9130022E-009  0.3808901E+03  0.7957747E-01  0.3447292E+00
         13   -1    0    0    0    0  0.00000000000E+00  0.00000000000E+00  0.14999999963E+04  0.15000000000E+04  0.10566000000E+00 0.  1.
        994   -1    0    0    0    0 -0.00000000000E+00 -0.00000000000E+00  0.11368683772E-12  0.17120000000E+03  0.17120000000E+03 0.  0.
         13    1    1    2    0    0 -0.85371396406E+01 -0.13071474588E+02  0.33311165555E+02  0.36788464440E+02  0.10566000000E+00 0.  1.
        994    1    1    2    0    0 -0.71232286688E+01 -0.95202279815E+00  0.38566758337E+01  0.17139416759E+03  0.17120000000E+03 0.  0.
        998    1    1    2    0    0  0.15660368309E+02  0.14023497386E+02  0.14628321549E+04  0.14630173680E+04  0.10000000000E+02 0.  1.
</event>
<event>
 5    1  0.9130022E-009  0.3815839E+03  0.7957747E-01  0.3444291E+00
         13   -1    0    0    0    0  0.00000000000E+00  0.00000000000E+00  0.14999999963E+04  0.15000000000E+04  0.10566000000E+00 0.  1.
        994   -1    0    0    0    0 -0.00000000000E+00 -0.00000000000E+00  0.11368683772E-12  0.17120000000E+03  0.17120000000E+03 0.  0.
         13    1    1    2    0    0 -0.68893684206E+02  0.26035785185E+02  0.13727224905E+03  0.15578152444E+03  0.10566000000E+00 0.  1.
        994    1    1    2    0    0  0.73829655892E+02 -0.20693037814E+02  0.38954999632E+02  0.19158797431E+03  0.17120000000E+03 0.  0.
        998    1    1    2    0    0 -0.49359716857E+01 -0.53427473714E+01  0.13237727476E+04  0.13238305012E+04  0.10000000000E+02 0.  1.
</event>
<event>
 5    1  0.9130022E-009  0.3811151E+03  0.7957747E-01  0.3446317E+00
         13   -1    0    0    0    0  0.00000000000E+00  0.00000000000E+00  0.14999999963E+04  0.15000000000E+04  0.10566000000E+00 0.  1.
        994   -1    0    0    0    0 -0.00000000000E+00 -0.00000000000E+00  0.11368683772E-12  0.17120000000E+03  0.17120000000E+03 0.  0.
         13    1    1    2    0    0  0.11572535714E+02  0.27727462614E+01  0.18259178525E+02  0.21794964307E+02  0.10566000000E+00 0.  1.
        994    1    1    2    0    0 -0.89108297756E+01 -0.70995430476E+01  0.40037439618E+01  0.17162539545E+03  0.17120000000E+03 0.  0.
        998    1    1    2    0    0 -0.26617059387E+01  0.43267967862E+01  0.14777370738E+04  0.14777796402E+04  0.10000000000E+02 0.  1.
</event>
<event>
 5    1  0.9130022E-009  0.3829064E+03  0.7957747E-01  0.3438600E+00
         13   -1    0    0    0    0  0.00000000000E+00  0.00000000000E+00  0.14999999963E+04  0.15000000000E+04  0.10566000000E+00 0. -1.
        994   -1    0    0    0    0 -0.00000000000E+00 -0.00000000000E+00  0.11368683772E-12  0.17120000000E+03  0.17120000000E+03 0.  0.
         13    1    1    2    0    0  0.21619262707E+02 -0.17695452143E+01  0.88716825800E+02  0.91330225853E+02  0.10566000000E+00 0. -1.
        994    1    1    2    0    0 -0.11471064496E+02 -0.75330992843E+01  0.32970076636E+01  0.17178079976E+03  0.17120000000E+03 0.  0.
        998    1    1    2    0    0 -0.10148198211E+02  0.93026444986E+01  0.14079861628E+04  0.14080889744E+04  0.10000000000E+02 0. -1.
</event>
<event>
 5    1  0.9130022E-009  0.3825057E+03  0.7957747E-01  0.3440320E+00
         13   -1    0    0    0    0  0.00000000000E+00  0.00000000000E+00  0.14999999963E+04  0.15000000000E+04  0.10566000000E+00 0.  1.
        994   -1    0    0    0    0 -0.00000000000E+00 -0.00000000000E+00  0.11368683772E-12  0.17120000000E+03  0.17120000000E+03 0.  0.
         13    1    1    2    0    0 -0.32647624327E+02 -0.11573562455E+02  0.19080478261E+03  0.19392341517E+03  0.10566000000E+00 0.  1.
        994    1    1    2    0    0  0.25260483896E+02  0.20330068290E+02  0.63673068693E+01  0.17435993324E+03  0.17120000000E+03 0.  0.
        998    1    1    2    0    0  0.73871404313E+01 -0.87565058351E+01  0.13028279068E+04  0.13029166516E+04  0.10000000000E+02 0.  1.
</event>
<event>
 5    1  0.9130022E-009  0.3819669E+03  0.7957747E-01  0.3442639E+00
         13   -1    0    0    0    0  0.00000000000E+00  0.00000000000E+00  0.14999999963E+04  0.15000000000E+04  0.10566000000E+00 0.  1.
        994   -1    0    0    0    0 -0.00000000000E+00 -0.00000000000E+00  0.11368683772E-12  0.17120000000E+03  0.17120000000E+03 0.  0.
         13    1    1    2    0    0  0.74203502098E+01  0.83556806541E+01  0.18336232405E+02  0.21473415640E+02  0.10566000000E+00 0.  1.
        994    1    1    2    0    0 -0.69565836534E+01 -0.11192607596E+02  0.37205700119E+01  0.17174676463E+03  0.17120000000E+03 0.  0.
        998    1    1    2    0    0 -0.46376655646E+00  0.28369269416E+01  0.14779431939E+04  0.14779798197E+04  0.10000000000E+02 0.  1.
</event>
<event>
 5    1  0.9130022E-009  0.3857309E+03  0.7957747E-01  0.3426578E+00
         13   -1    0    0    0    0  0.00000000000E+00  0.00000000000E+00  0.14999999963E+04  0.15000000000E+04  0.10566000000E+00 0. -1.
        994   -1    0    0    0    0 -0.00000000000E+00 -0.00000000000E+00  0.11368683772E-12  0.17120000000E+03  0.17120000000E+03 0.  0.
         13    1    1    2    0    0  0.86617861694E+01 -0.86755999531E+01  0.58877562043E+02  0.60140427754E+02  0.10566000000E+00 0. -1.
        994    1    1    2    0    0 -0.86697348925E+01  0.59474711932E+01  0.16304557770E+01  0.17153027460E+03  0.17120000000E+03 0.  0.
        998    1    1    2    0    0  0.79487231005E-02  0.27281287599E+01  0.14394919785E+04  0.14395292977E+04  0.10000000000E+02 0. -1.
</event>
<event>
 5    1  0.9130022E-009  0.3718770E+03  0.7957747E-01  0.3487309E+00
         13   -1    0    0    0    0  0.00000000000E+00  0.00000000000E+00  0.14999999963E+04  0.15000000000E+04  0.10566000000E+00 0. -1.
        994   -1    0    0    0    0 -0.00000000000E+00 -0.00000000000E+00  0.11368683772E-12  0.17120000000E+03  0.17120000000E+03 0.  0.
         13    1    1    2    0    0 -0.39302473876E+02  0.55406201275E+01  0.90778959011E+02  0.99076806001E+02  0.10566000000E+00 0. -1.
        994    1    1    2    0    0  0.28621775874E+02 -0.15019892750E+01  0.11118508136E+02  0.17393827425E+03  0.17120000000E+03 0.  0.
        998    1    1    2    0    0  0.10680698003E+02 -0.40386308525E+01  0.13981025291E+04  0.13981849197E+04  0.10000000000E+02 0. -1.
</event>
<event>
 5    1  0.9130022E-009  0.3847896E+03  0.7957747E-01  0.3430565E+00
         13   -1    0    0    0    0  0.00000000000E+00  0.00000000000E+00  0.14999999963E+04  0.15000000000E+04  0.10566000000E+00 0. -1.
        994   -1    0    0    0    0 -0.00000000000E+00 -0.00000000000E+00  0.11368683772E-12  0.17120000000E+03  0.17120000000E+03 0.  0.
         13    1    1    2    0    0  0.10063810825E+02  0.11221136037E+02  0.62778698511E+02  0.64562917632E+02  0.10566000000E+00 0. -1.
        994    1    1    2    0    0 -0.40184304784E+01 -0.18975511869E+02  0.29737019491E+01  0.17232092368E+03  0.17120000000E+03 0.  0.
        998    1    1    2    0    0 -0.60453803469E+01  0.77543758322E+01  0.14342475958E+04  0.14343161587E+04  0.10000000000E+02 0. -1.
</event>
<event>
 5    1  0.9130022E-009  0.3790415E+03  0.7957747E-01  0.3455343E+00
         13   -1    0    0    0    0  0.00000000000E+00  0.00000000000E+00  0.14999999963E+04  0.15000000000E+04  0.10566000000E+00 0. -1.
        994   -1    0    0    0    0 -0.00000000000E+00 -0.00000000000E+00  0.11368683772E-12  0.17120000000E+03  0.17120000000E+03 0.  0.
         13    1    1    2    0    0  0.39791013371E+01  0.16075438851E+02  0.27590711571E+02  0.32179364673E+02  0.10566000000E+00 0. -1.
        994    1    1    2    0    0 -0.35997742654E+01 -0.13719483746E+02  0.52927467426E+01  0.17186807667E+03  0.17120000000E+03 0.  0.
        998    1    1    2    0    0 -0.37932707174E+00 -0.23559551049E+01  0.14671165380E+04  0.14671525587E+04  0.10000000000E+02 0. -1.
</event>
<event>
 5    1  0.9130022E-009  0.3825616E+03  0.7957747E-01  0.3440080E+00
         13   -1    0    0    0    0  0.00000000000E+00  0.00000000000E+00  0.14999999963E+04  0.15000000000E+04  0.10566000000E+00 0.  1.
        994   -1    0    0    0    0 -0.00000000000E+00 -0.00000000000E+00  0.11368683772E-12  0.17120000000E+03  0.17120000000E+03 0.  0.
         13    1    1    2    0    0 -0.19836084069E+02 -0.10216875108E+02  0.83228020949E+02  0.86167101630E+02  0.10566000000E+00 0.  1.
        994    1    1    2    0    0  0.19899647554E+02  0.76981764546E+01  0.43561965089E+01  0.17257947254E+03  0.17120000000E+03 0.  0.
        998    1    1    2    0    0 -0.63563485244E-01  0.25186986536E+01  0.14124157788E+04  0.14124534258E+04  0.10000000000E+02 0.  1.
</event>
<event>
 5    1  0.9130022E-009  0.3779341E+03  0.7957747E-01  0.3460204E+00
         13   -1    0    0    0    0  0.00000000000E+00  0.00000000000E+00  0.14999999963E+04  0.15000000000E+04  0.10566000000E+00 0.  1.
        994   -1    0    0    0    0 -0.00000000000E+00 -0.00000000000E+00  0.11368683772E-12  0.17120000000E+03  0.17120000000E+03 0.  0.
         13    1    1    2    0    0  0.19181847349E+02  0.32500063220E+02  0.13709248992E+03  0.14219198055E+03  0.10566000000E+00 0.  1.
        994    1    1    2    0    0 -0.11525288606E+02 -0.16983186568E+02  0.65988698460E+01  0.17255215440E+03  0.17120000000E+03 0.  0.
        998    1    1    2    0    0 -0.76565587431E+01 -0.15516876653E+02  0.13563086365E+04  0.13564558651E+04  0.10000000000E+02 0.  1.
</event>
<event>
 5    1  0.9130022E-009  0.3861431E+03  0.7957747E-01  0.3424839E+00
         13   -1    0    0    0    0  0.00000000000E+00  0.00000000000E+00  0.14999999963E+04  0.15000000000E+04  0.10566000000E+00 0.  1.
        994   -1    0    0    0    0 -0.00000000000E+00 -0.00000000000E+00  0.11368683772E-12  0.17120000000E+03  0.17120000000E+03 0.  0.
         13    1    1    2    0    0 -0.11146021638E+02 -0.62575800886E+01  0.76477948561E+02  0.77538886290E+02  0.10566000000E+00 0.  1.
        994    1    1    2    0    0  0.12272266557E+02 -0.14045095423E+00  0.15573558293E+01  0.17164642032E+03  0.17120000000E+03 0.  0.
        998    1    1    2    0    0 -0.11262449195E+01  0.63980310428E+01  0.14219646919E+04  0.14220146934E+04  0.10000000000E+02 0.  1.
</event>
<event>
 5    1  0.9130022E-009  0.3840492E+03  0.7957747E-01  0.3433715E+00
         13   -1    0    0    0    0  0.00000000000E+00  0.00000000000E+00  0.14999999963E+04  0.15000000000E+04  0.10566000000E+00 0.  1.
        994   -1    0    0    0    0 -0.00000000000E+00 -0.00000000000E+00  0.11368683772E-12  0.17120000000E+03  0.17120000000E+03 0.  0.
         13    1    1    2    0    0 -0.10052096262E+02  0.33636498515E+01  0.25870925331E+02  0.27958446329E+02  0.10566000000E+00 0.  1.
        994    1    1    2    0    0  0.80861936689E+01 -0.63862581539E+01  0.24532513112E+01  0.17152734261E+03  0.17120000000E+03 0.  0.
        998    1    1    2    0    0  0.19659025935E+01  0.30226083024E+01  0.14716758196E+04  0.14717142111E+04  0.10000000000E+02 0.  1.
</event>
<event>
 5    1  0.9130022E-009  0.3847504E+03  0.7957747E-01  0.3430731E+00
         13   -1    0    0    0    0  0.00000000000E+00  0.00000000000E+00  0.14999999963E+04  0.15000000000E+04  0.10566000000E+00 0.  1.
        994   -1    0    0    0    0 -0.00000000000E+00 -0.00000000000E+00  0.11368683772E-12  0.17120000000E+03  0.17120000000E+03 0.  0.
         13    1    1    2    0    0 -0.17357084591E+02  0.26446772368E+01  0.87763767734E+02  0.89502808861E+02  0.10566000000E+00 0.  1.
        994    1    1    2    0    0  0.11546008014E+02  0.60269359365E+00  0.21941962168E+01  0.17160398608E+03  0.17120000000E+03 0.  0.
        998    1    1    2    0    0  0.58110765771E+01 -0.32473708304E+01  0.14100420323E+04  0.14100932051E+04  0.10000000000E+02 0.  1.
</event>
<event>
 5    1  0.9130022E-009  0.3816492E+03  0.7957747E-01  0.3444009E+00
         13   -1    0    0    0    0  0.00000000000E+00  0.00000000000E+00  0.14999999963E+04  0.15000000000E+04  0.10566000000E+00 0.  1.
        994   -1    0    0    0    0 -0.00000000000E+00 -0.00000000000E+00  0.11368683772E-12  0.17120000000E+03  0.17120000000E+03 0.  0.
         13    1    1    2    0    0  0.24135574778E+02  0.40088236746E+02  0.22194131920E+03  0.22682053044E+03  0.10566000000E+00 0.  1.
        994    1    1    2    0    0 -0.61933123494E+02 -0.52565737461E+02  0.25562721684E+02  0.19121130009E+03  0.17120000000E+03 0.  0.
        998    1    1    2    0    0  0.37797548715E+02  0.12477500715E+02  0.12524959554E+04  0.12531681695E+04  0.10000000000E+02 0.  1.
</event>
<event>
 5    1  0.9130022E-009  0.4136305E+03  0.7957747E-01  0.3316638E+00
         13   -1    0    0    0    0  0.00000000000E+00  0.00000000000E+00  0.14999999963E+04  0.15000000000E+04  0.10566000000E+00 0.  1.
        994   -1    0    0    0    0 -0.00000000000E+00 -0.00000000000E+00  0.11368683772E-12  0.17120000000E+03  0.17120000000E+03 0.  0.
         13    1    1    2    0    0 -0.45670615043E+01 -0.67733380117E+02  0.44156735507E+02  0.80984549684E+02  0.10566000000E+00 0.  1.
        994    1    1    2    0    0  0.26286765989E+02  0.10433649033E+03  0.86095784720E+02  0.21977038342E+03  0.17120000000E+03 0.  0.
        998    1    1    2    0    0 -0.21719704485E+02 -0.36603110212E+02  0.13697474761E+04  0.13704450669E+04  0.10000000000E+02 0.  1.
</event>
<event>
 5    1  0.9130022E-009  0.4044855E+03  0.7957747E-01  0.3351014E+00
         13   -1    0    0    0    0  0.00000000000E+00  0.00000000000E+00  0.14999999963E+04  0.15000000000E+04  0.10566000000E+00 0. -1.
        994   -1    0    0    0    0 -0.00000000000E+00 -0.00000000000E+00  0.11368683772E-12  0.17120000000E+03  0.17120000000E+03 0.  0.
         13    1    1    2    0    0 -0.14338573559E+03  0.45918969281E+01  0.32581290258E+03  0.35599805244E+03  0.10566000000E+00 0. -1.
        994    1    1    2    0    0  0.91282481519E+02 -0.87407825379E+02  0.97563823700E+02  0.23409561949E+03  0.17120000000E+03 0.  0.
        998    1    1    2    0    0  0.52103254073E+02  0.82815928451E+02  0.10766232700E+04  0.10811063281E+04  0.10000000000E+02 0. -1.
</event>
<event>
 5    1  0.9130022E-009  0.3807900E+03  0.7957747E-01  0.3447726E+00
         13   -1    0    0    0    0  0.00000000000E+00  0.00000000000E+00  0.14999999963E+04  0.15000000000E+04  0.10566000000E+00 0.  1.
        994   -1    0    0    0    0 -0.00000000000E+00 -0.00000000000E+00  0.11368683772E-12  0.17120000000E+03  0.17120000000E+03 0.  0.
         13    1    1    2    0    0 -0.18406667863E+02  0.57307727148E+02  0.30249847327E+03  0.30842879001E+03  0.10566000000E+00 0.  1.
        994    1    1    2    0    0  0.44566151617E+02 -0.76650688944E+02  0.30407220998E+02  0.19518070877E+03  0.17120000000E+03 0.  0.
        998    1    1    2    0    0 -0.26159483755E+02  0.19342961796E+02  0.11670943020E+04  0.11675905012E+04  0.10000000000E+02 0.  1.
</event>
<event>
 5    1  0.9130022E-009  0.3808085E+03  0.7957747E-01  0.3447646E+00
         13   -1    0    0    0    0  0.00000000000E+00  0.00000000000E+00  0.14999999963E+04  0.15000000000E+04  0.10566000000E+00 0.  1.
        994   -1    0    0    0    0 -0.00000000000E+00 -0.00000000000E+00  0.11368683772E-12  0.17120000000E+03  0.17120000000E+03 0.  0.
         13    1    1    2    0    0  0.23878136847E+02  0.74514910247E+00  0.77694115090E+02  0.81284114993E+02  0.10566000000E+00 0.  1.
        994    1    1    2    0    0 -0.92029698773E+01  0.17497347246E+02  0.50297458984E+01  0.17241110799E+03  0.17120000000E+03 0.  0.
        998    1    1    2    0    0 -0.14675166970E+02 -0.18242496348E+02  0.14172761353E+04  0.14175047770E+04  0.10000000000E+02 0.  1.
</event>
<event>
 5    1  0.9130022E-009  0.3818597E+03  0.7957747E-01  0.3443101E+00
         13   -1    0    0    0    0  0.00000000000E+00  0.00000000000E+00  0.14999999963E+04  0.15000000000E+04  0.10566000000E+00 0. -1.
        994   -1    0    0    0    0 -0.00000000000E+00 -0.00000000000E+00  0.11368683772E-12  0.17120000000E+03  0.17120000000E+03 0.  0.
         13    1    1    2    0    0  0.18439376219E+01 -0.11270129115E+02  0.18966490726E+02  0.22139441066E+02  0.10566000000E+00 0. -1.
        994    1    1    2    0    0 -0.26104430817E+01  0.10481689327E+02  0.35850897617E+01  0.17157789220E+03  0.17120000000E+03 0.  0.
        998    1    1    2    0    0  0.76650545975E+00  0.78843978764E+00  0.14774484158E+04  0.14774826667E+04  0.10000000000E+02 0. -1.
</event>
<event>
 5    1  0.1293160E-008  0.3860592E+03  0.7957747E-01  0.3425192E+00
         13   -1    0    0    0    0  0.00000000000E+00  0.00000000000E+00  0.14999999963E+04  0.15000000000E+04  0.10566000000E+00 0. -1.
        994   -1    0    0    0    0 -0.00000000000E+00 -0.00000000000E+00  0.11368683772E-12  0.17120000000E+03  0.17120000000E+03 0.  0.
         13    1    1    2    0    0 -0.79774613894E+01  0.69663235125E+01  0.50853164537E+02  0.51944442060E+02  0.10566000000E+00 0. -1.
        994    1    1    2    0    0  0.84227001315E+01 -0.36069622157E+01  0.13803435919E+01  0.17145056839E+03  0.17120000000E+03 0.  0.
        998    1    1    2    0    0 -0.44523874207E+00 -0.33593612968E+01  0.14477664881E+04  0.14478049895E+04  0.10000000000E+02 0. -1.
</event>
<event>
 5    1  0.9130022E-009  0.3769271E+03  0.7957747E-01  0.3464649E+00
         13   -1    0    0    0    0  0.00000000000E+00  0.00000000000E+00  0.14999999963E+04  0.15000000000E+04  0.10566000000E+00 0.  1.
        994   -1    0    0    0    0 -0.00000000000E+00 -0.00000000000E+00  0.11368683772E-12  0.17120000000E+03  0.17120000000E+03 0.  0.
         13    1    1    2    0    0  0.42546486269E+02  0.14245968502E+02  0.19480709201E+03  0.19990739200E+03  0.10566000000E+00 0.  1.
        994    1    1    2    0    0 -0.18771692960E+02  0.23914418060E+02  0.88202856441E+01  0.17410201977E+03  0.17120000000E+03 0.  0.
        998    1    1    2    0    0 -0.23774793309E+02 -0.38160386562E+02  0.12963726186E+04  0.12971905882E+04  0.10000000000E+02 0.  1.
</event>
<event>
 5    1  0.9130022E-009  0.3846879E+03  0.7957747E-01  0.3430997E+00
         13   -1    0    0    0    0  0.00000000000E+00  0.00000000000E+00  0.14999999963E+04  0.15000000000E+04  0.10566000000E+00 0.  1.
        994   -1    0    0    0    0 -0.00000000000E+00 -0.00000000000E+00  0.11368683772E-12  0.17120000000E+03  0.17120000000E+03 0.  0.
         13    1    1    2    0    0  0.84154337607E+01  0.61926360837E+01  0.30543456031E+02  0.32281297022E+02  0.10566000000E+00 0.  1.
        994    1    1    2    0    0  0.90148434298E+01 -0.20551494185E+02  0.34448487722E+01  0.17269898175E+03  0.17120000000E+03 0.  0.
        998    1    1    2    0    0 -0.17430277191E+02  0.14358858101E+02  0.14660116915E+04  0.14662197212E+04  0.10000000000E+02 0.  1.
</event>
<event>
 5    1  0.9130022E-009  0.4119455E+03  0.7957747E-01  0.3322859E+00
         13   -1    0    0    0    0  0.00000000000E+00  0.00000000000E+00  0.14999999963E+04  0.15000000000E+04  0.10566000000E+00 0. -1.
        994   -1    0    0    0    0 -0.00000000000E+00 -0.00000000000E+00  0.11368683772E-12  0.17120000000E+03  0.17120000000E+03 0.  0.
         13    1    1    2    0    0  0.17838347538E+02 -0.82333698422E+02  0.83296397190E+02  0.11847086345E+03  0.10566000000E+00 0. -1.
        994    1    1    2    0    0 -0.43488784619E+02  0.84192146907E+02  0.73164727924E+02  0.20890693957E+03  0.17120000000E+03 0.  0.
        998    1    1    2    0    0  0.25650437081E+02 -0.18584484859E+01  0.13435388712E+04  0.13438221970E+04  0.10000000000E+02 0. -1.
</event>
<event>
 5    1  0.9130022E-009  0.3468140E+03  0.7957747E-01  0.3609743E+00
         13   -1    0    0    0    0  0.00000000000E+00  0.00000000000E+00  0.14999999963E+04  0.15000000000E+04  0.10566000000E+00 0.  1.
        994   -1    0    0    0    0 -0.00000000000E+00 -0.00000000000E+00  0.11368683772E-12  0.17120000000E+03  0.17120000000E+03 0.  0.
         13    1    1    2    0    0  0.10009073911E+03  0.24716103956E+03  0.95701123433E+03  0.99346728649E+03  0.10566000000E+00 0.  1.
        994    1    1    2    0    0 -0.98043148424E+02 -0.19445427512E+03  0.22963904629E+03  0.35981725313E+03  0.17120000000E+03 0.  0.
        998    1    1    2    0    0 -0.20475906900E+01 -0.52706764438E+02  0.31334971566E+03  0.31791546038E+03  0.10000000000E+02 0. -1.
</event>
<event>
 5    1  0.9130022E-009  0.3818500E+03  0.7957747E-01  0.3443143E+00
         13   -1    0    0    0    0  0.00000000000E+00  0.00000000000E+00  0.14999999963E+04  0.15000000000E+04  0.10566000000E+00 0. -1.
        994   -1    0    0    0    0 -0.00000000000E+00 -0.00000000000E+00  0.11368683772E-12  0.17120000000E+03  0.17120000000E+03 0.  0.
         13    1    1    2    0    0 -0.71457701525E+01  0.12346866357E+02  0.28956784528E+02  0.32280236588E+02  0.10566000000E+00 0. -1.
        994    1    1    2    0    0  0.16995838564E+02 -0.20426803344E+02  0.55518454161E+01  0.17333890449E+03  0.17120000000E+03 0.  0.
        998    1    1    2    0    0 -0.98500684114E+01  0.80799369869E+01  0.14654913663E+04  0.14655808589E+04  0.10000000000E+02 0. -1.
</event>
<event>
 5    1  0.9130022E-009  0.3857291E+03  0.7957747E-01  0.3426586E+00
         13   -1    0    0    0    0  0.00000000000E+00  0.00000000000E+00  0.14999999963E+04  0.15000000000E+04  0.10566000000E+00 0. -1.
        994   -1    0    0    0    0 -0.00000000000E+00 -0.00000000000E+00  0.11368683772E-12  0.17120000000E+03  0.17120000000E+03 0.  0.
         13    1    1    2    0    0  0.24980220034E+01  0.12122365049E+02  0.69912125744E+02  0.70999354493E+02  0.10566000000E+00 0. -1.
        994    1    1    2    0    0  0.34818112864E+01  0.94913478901E+01  0.16039888659E+01  0.17150574764E+03  0.17120000000E+03 0.  0.
        998    1    1    2    0    0 -0.59798332898E+01 -0.21613712940E+02  0.14284838817E+04  0.14286948979E+04  0.10000000000E+02 0. -1.
</event>
<event>
 5    1  0.9130022E-009  0.3861608E+03  0.7957747E-01  0.3424764E+00
         13   -1    0    0    0    0  0.00000000000E+00  0.00000000000E+00  0.14999999963E+04  0.15000000000E+04  0.10566000000E+00 0. -1.
        994   -1    0    0    0    0 -0.00000000000E+00 -0.00000000000E+00  0.11368683772E-12  0.17120000000E+03  0.17120000000E+03 0.  0.
         13    1    1    2    0    0  0.71038068805E+02 -0.15697239471E+01  0.10655131630E+03  0.12807054861E+03  0.10566000000E+00 0. -1.
        994    1    1    2    0    0 -0.88470729140E+02  0.11316485507E+02  0.49887183675E+02  0.19938230577E+03  0.17120000000E+03 0.  0.
        998    1    1    2    0    0  0.17432660335E+02 -0.97467615604E+01  0.13435614963E+04  0.13437471456E+04  0.10000000000E+02 0. -1.
</event>
<event>
 5    1  0.9130022E-009  0.3841692E+03  0.7957747E-01  0.3433203E+00
         13   -1    0    0    0    0  0.00000000000E+00  0.00000000000E+00  0.14999999963E+04  0.15000000000E+04  0.10566000000E+00 0. -1.
        994   -1    0    0    0    0 -0.00000000000E+00 -0.00000000000E+00  0.11368683772E-12  0.17120000000E+03  0.17120000000E+03 0.  0.
         13    1    1    2    0    0 -0.91259883914E+01  0.43597797978E+01  0.27683850595E+02  0.29473684735E+02  0.10566000000E+00 0. -1.
        994    1    1    2    0    0 -0.16609245058E+02  0.22632790091E+02  0.46463200924E+01  0.17354866320E+03  0.17120000000E+03 0.  0.
        998    1    1    2    0    0  0.25735233449E+02 -0.26992569888E+02  0.14676698256E+04  0.14681776521E+04  0.10000000000E+02 0. -1.
</event>
<event>
 5    1  0.1091650E-008  0.3856095E+03  0.7957747E-01  0.3427091E+00
         13   -1    0    0    0    0  0.00000000000E+00  0.00000000000E+00  0.14999999963E+04  0.15000000000E+04  0.10566000000E+00 0. -1.
        994   -1    0    0    0    0 -0.00000000000E+00 -0.00000000000E+00  0.11368683772E-12  0.17120000000E+03  0.17120000000E+03 0.  0.
         13    1    1    2    0    0 -0.11503313155E+02  0.58205065892E+01  0.63403585643E+02  0.64701084588E+02  0.10566000000E+00 0. -1.
        994    1    1    2    0    0  0.59737057197E+01 -0.50322351950E+01  0.15281050332E+01  0.17138489915E+03  0.17120000000E+03 0.  0.
        998    1    1    2    0    0  0.55296074358E+01 -0.78827139417E+00  0.14350683056E+04  0.14351140163E+04  0.10000000000E+02 0. -1.
</event>
<event>
 5    1  0.9130022E-009  0.3739385E+03  0.7957747E-01  0.3477984E+00
         13   -1    0    0    0    0  0.00000000000E+00  0.00000000000E+00  0.14999999963E+04  0.15000000000E+04  0.10566000000E+00 0.  1.
        994   -1    0    0    0    0 -0.00000000000E+00 -0.00000000000E+00  0.11368683772E-12  0.17120000000E+03  0.17120000000E+03 0.  0.
         13    1    1    2    0    0 -0.36710463261E+02  0.49174262589E+01  0.49919441292E+02  0.62159480184E+02  0.10566000000E+00 0.  1.
        994    1    1    2    0    0  0.90732202893E+01  0.66082969363E+01  0.13483466815E+02  0.17209659146E+03  0.17120000000E+03 0.  0.
        998    1    1    2    0    0  0.27637242972E+02 -0.11525723195E+02  0.14365970882E+04  0.14369439284E+04  0.10000000000E+02 0.  1.
</event>
<event>
 5    1  0.9130022E-009  0.3821732E+03  0.7957747E-01  0.3441750E+00
         13   -1    0    0    0    0  0.00000000000E+00  0.00000000000E+00  0.14999999963E+04  0.15000000000E+04  0.10566000000E+00 0. -1.
        994   -1    0    0    0    0 -0.00000000000E+00 -0.00000000000E+00  0.11368683772E-12  0.17120000000E+03  0.17120000000E+03 0.  0.
         13    1    1    2    0    0 -0.64301926488E+01 -0.98305709643E+01  0.21311767269E+02  0.24334956157E+02  0.10566000000E+00 0. -1.
        994    1    1    2    0    0  0.31268647860E+01  0.11538810573E+02  0.35146553875E+01  0.17165288881E+03  0.17120000000E+03 0.  0.
        998    1    1    2    0    0  0.33033278628E+01 -0.17082396089E+01  0.14751735736E+04  0.14752121550E+04  0.10000000000E+02 0. -1.
</event>
<event>
 5    1  0.9130022E-009  0.3797338E+03  0.7957747E-01  0.3452318E+00
         13   -1    0    0    0    0  0.00000000000E+00  0.00000000000E+00  0.14999999963E+04  0.15000000000E+04  0.10566000000E+00 0. -1.
        994   -1    0    0    0    0 -0.00000000000E+00 -0.00000000000E+00  0.11368683772E-12  0.17120000000E+03  0.17120000000E+03 0.  0.
         13    1    1    2    0    0  0.13360278369E+02 -0.85570350954E+01  0.27553286278E+02  0.31794883810E+02  0.10566000000E+00 0. -1.
        994    1    1    2    0    0 -0.13962738478E+02  0.33381770477E+01  0.49574569232E+01  0.17187238833E+03  0.17120000000E+03 0.  0.
        998    1    1    2    0    0  0.60246010923E+00  0.52188580477E+01  0.14674892531E+04  0.14675327279E+04  0.10000000000E+02 0. -1.
</event>
<event>
 5    1  0.9130022E-009  0.3714818E+03  0.7957747E-01  0.3489108E+00
         13   -1    0    0    0    0  0.00000000000E+00  0.00000000000E+00  0.14999999963E+04  0.15000000000E+04  0.10566000000E+00 0.  1.
        994   -1    0    0    0    0 -0.00000000000E+00 -0.00000000000E+00  0.11368683772E-12  0.17120000000E+03  0.17120000000E+03 0.  0.
         13    1    1    2    0    0  0.36406251975E+02 -0.94914570970E+02  0.52139038493E+03  0.53120818482E+03  0.10566000000E+00 0.  1.
        994    1    1    2    0    0 -0.21049515074E+02  0.34216645670E+02  0.17417401120E+02  0.17671068668E+03  0.17120000000E+03 0.  0.
        998    1    1    2    0    0 -0.15356736901E+02  0.60697925299E+02  0.96119221023E+03  0.96328112850E+03  0.10000000000E+02 0.  1.
</event>
<event>
 5    1  0.9130022E-009  0.3757935E+03  0.7957747E-01  0.3469682E+00
         13   -1    0    0    0    0  0.00000000000E+00  0.00000000000E+00  0.14999999963E+04  0.15000000000E+04  0.10566000000E+00 0.  1.
        994   -1    0    0    0    0 -0.00000000000E+00 -0.00000000000E+00  0.11368683772E-12  0.17120000000E+03  0.17120000000E+03 0.  0.
         13    1    1    2    0    0 -0.77782778739E+02 -0.92166924183E+02  0.45844403893E+03  0.47404203461E+03  0.10566000000E+00 0.  1.
        994    1    1    2    0    0  0.50327888350E+02  0.70536032579E+02  0.41340719066E+02  0.19628225414E+03  0.17120000000E+03 0.  0.
        998    1    1    2    0    0  0.27454890389E+02  0.21630891605E+02  0.10002152383E+04  0.10008757112E+04  0.10000000000E+02 0.  1.
</event>
<event>
 5    1  0.9130022E-009  0.3822559E+03  0.7957747E-01  0.3441394E+00
         13   -1    0    0    0    0  0.00000000000E+00  0.00000000000E+00  0.14999999963E+04  0.15000000000E+04  0.10566000000E+00 0.  1.
        994   -1    0    0    0    0 -0.00000000000E+00 -0.00000000000E+00  0.11368683772E-12  0.17120000000E+03  0.17120000000E+03 0.  0.
         13    1    1    2    0    0  0.16378555990E+02  0.18840766427E+01  0.44330130579E+02  0.47296706886E+02  0.10566000000E+00 0.  1.
        994    1    1    2    0    0 -0.96660171926E+01 -0.10819345031E+02  0.36974453924E+01  0.17185342946E+03  0.17120000000E+03 0.  0.
        998    1    1    2    0    0 -0.67125387979E+01  0.89352683886E+01  0.14519724203E+04  0.14520498637E+04  0.10000000000E+02 0.  1.
</event>
<event>
 5    1  0.9130022E-009  0.3819829E+03  0.7957747E-01  0.3442570E+00
         13   -1    0    0    0    0  0.00000000000E+00  0.00000000000E+00  0.14999999963E+04  0.15000000000E+04  0.10566000000E+00 0.  1.
        994   -1    0    0    0    0 -0.00000000000E+00 -0.00000000000E+00  0.11368683772E-12  0.17120000000E+03  0.17120000000E+03 0.  0.
         13    1    1    2    0    0  0.93100957735E+01 -0.49328833153E+01  0.16987204168E+02  0.19989684605E+02  0.10566000000E+00 0.  1.
        994    1    1    2    0    0  0.76883465267E+01  0.45448090889E+01  0.34004823590E+01  0.17146652514E+03  0.17120000000E+03 0.  0.
        998    1    1    2    0    0 -0.16998442300E+02  0.38807422645E+00  0.14796123098E+04  0.14797437903E+04  0.10000000000E+02 0.  1.
</event>
<event>
 5    1  0.9130022E-009  0.3792202E+03  0.7957747E-01  0.3454561E+00
         13   -1    0    0    0    0  0.00000000000E+00  0.00000000000E+00  0.14999999963E+04  0.15000000000E+04  0.10566000000E+00 0.  1.
        994   -1    0    0    0    0 -0.00000000000E+00 -0.00000000000E+00  0.11368683772E-12  0.17120000000E+03  0.17120000000E+03 0.  0.
         13    1    1    2    0    0  0.22979360185E+02 -0.25149651458E+02  0.14354603825E+03  0.14753315636E+03  0.10566000000E+00 0.  1.
        994    1    1    2    0    0 -0.62287822837E+01 -0.63392098861E+01  0.47920754908E+01  0.17149748482E+03  0.17120000000E+03 0.  0.
        998    1    1    2    0    0 -0.16750577901E+02  0.31488861344E+02  0.13516618825E+04  0.13521693588E+04  0.10000000000E+02 0.  1.
</event>
<event>
 5    1  0.9130022E-009  0.3746891E+03  0.7957747E-01  0.3474614E+00
         13   -1    0    0    0    0  0.00000000000E+00  0.00000000000E+00  0.14999999963E+04  0.15000000000E+04  0.10566000000E+00 0.  1.
        994   -1    0    0    0    0 -0.00000000000E+00 -0.00000000000E+00  0.11368683772E-12  0.17120000000E+03  0.17120000000E+03 0.  0.
         13    1    1    2    0    0 -0.21155550594E+02  0.13642722062E+02  0.44322736634E+02  0.50972515467E+02  0.10566000000E+00 0.  1.
        994    1    1    2    0    0  0.57399345014E+01 -0.12381928180E+02  0.74724970366E+01  0.17190560551E+03  0.17120000000E+03 0.  0.
        998    1    1    2    0    0  0.15415616092E+02 -0.12607938818E+01  0.14482047626E+04  0.14483218790E+04  0.10000000000E+02 0.  1.
</event>
<event>
 5    1  0.9130022E-009  0.3829824E+03  0.7957747E-01  0.3438274E+00
         13   -1    0    0    0    0  0.00000000000E+00  0.00000000000E+00  0.14999999963E+04  0.15000000000E+04  0.10566000000E+00 0.  1.
        994   -1    0    0    0    0 -0.00000000000E+00 -0.00000000000E+00  0.11368683772E-12  0.17120000000E+03  0.17120000000E+03 0.  0.
         13    1    1    2    0    0 -0.84388915374E+01 -0.14643198379E+02  0.51896243541E+02  0.54579019842E+02  0.10566000000E+00 0.  1.
        994    1    1    2    0    0 -0.63405601062E+01  0.23928025021E+02  0.46661811224E+01  0.17304324988E+03  0.17120000000E+03 0.  0.
        998    1    1    2    0    0  0.14779451644E+02 -0.92848266419E+01  0.14434375716E+04  0.14435777303E+04  0.10000000000E+02 0.  1.
</event>
<event>
 5    1  0.9130022E-009  0.3738876E+03  0.7957747E-01  0.3478213E+00
         13   -1    0    0    0    0  0.00000000000E+00  0.00000000000E+00  0.14999999963E+04  0.15000000000E+04  0.10566000000E+00 0. -1.
        994   -1    0    0    0    0 -0.00000000000E+00 -0.00000000000E+00  0.11368683772E-12  0.17120000000E+03  0.17120000000E+03 0.  0.
         13    1    1    2    0    0  0.63975584233E+00  0.19927812359E+02  0.24356206627E+02  0.31476387313E+02  0.10566000000E+00 0. -1.
        994    1    1    2    0    0 -0.64247469020E+01 -0.13786176760E+02  0.80407832979E+01  0.17206228593E+03  0.17120000000E+03 0.  0.
        998    1    1    2    0    0  0.57849910597E+01 -0.61416355994E+01  0.14676030064E+04  0.14676613268E+04  0.10000000000E+02 0. -1.
</event>
<event>
 5    1  0.9130022E-009  0.3823012E+03  0.7957747E-01  0.3441199E+00
         13   -1    0    0    0    0  0.00000000000E+00  0.00000000000E+00  0.14999999963E+04  0.15000000000E+04  0.10566000000E+00 0.  1.
        994   -1    0    0    0    0 -0.00000000000E+00 -0.00000000000E+00  0.11368683772E-12  0.17120000000E+03  0.17120000000E+03 0.  0.
         13    1    1    2    0    0  0.13249486976E+01 -0.21782745101E+02  0.75483632626E+02  0.78575017860E+02  0.10566000000E+00 0.  1.
        994    1    1    2    0    0 -0.40934705952E+01  0.22592850712E+02  0.47270343687E+01  0.17279750652E+03  0.17120000000E+03 0.  0.
        998    1    1    2    0    0  0.27685218976E+01 -0.81010561127E+00  0.14197893293E+04  0.14198274756E+04  0.10000000000E+02 0.  1.
</event>
<event>
 5    1  0.9130022E-009  0.3741281E+03  0.7957747E-01  0.3477132E+00
         13   -1    0    0    0    0  0.00000000000E+00  0.00000000000E+00  0.14999999963E+04  0.15000000000E+04  0.10566000000E+00 0.  1.
        994   -1    0    0    0    0 -0.00000000000E+00 -0.00000000000E+00  0.11368683772E-12  0.17120000000E+03  0.17120000000E+03 0.  0.
         13    1    1    2    0    0  0.37540360334E+01  0.10088495952E+02  0.48550856613E+01  0.11809045597E+02  0.10566000000E+00 0.  1.
        994    1    1    2    0    0 -0.10866234783E+02 -0.27348789416E+01  0.75553188723E+01  0.17173257543E+03  0.17120000000E+03 0.  0.
        998    1    1    2    0    0  0.71121987494E+01 -0.73536170100E+01  0.14875895917E+04  0.14876583790E+04  0.10000000000E+02 0.  1.
</event>
<event>
 5    1  0.9130022E-009  0.3840123E+03  0.7957747E-01  0.3433872E+00
         13   -1    0    0    0    0  0.00000000000E+00  0.00000000000E+00  0.14999999963E+04  0.15000000000E+04  0.10566000000E+00 0.  1.
        994   -1    0    0    0    0 -0.00000000000E+00 -0.00000000000E+00  0.11368683772E-12  0.17120000000E+03  0.17120000000E+03 0.  0.
         13    1    1    2    0    0 -0.10189713873E+02  0.24423562999E+01  0.24184559777E+02  0.26357152137E+02  0.10566000000E+00 0.  1.
        994    1    1    2    0    0  0.25622419107E+02  0.24200385662E+02  0.62302922942E+01  0.17490118230E+03  0.17120000000E+03 0.  0.
        998    1    1    2    0    0 -0.15432705234E+02 -0.26642741962E+02  0.14695851442E+04  0.14699416656E+04  0.10000000000E+02 0.  1.
</event>
<event>
 5    1  0.9622302E-009  0.3855778E+03  0.7957747E-01  0.3427225E+00
         13   -1    0    0    0    0  0.00000000000E+00  0.00000000000E+00  0.14999999963E+04  0.15000000000E+04  0.10566000000E+00 0.  1.
        994   -1    0    0    0    0 -0.00000000000E+00 -0.00000000000E+00  0.11368683772E-12  0.17120000000E+03  0.17120000000E+03 0.  0.
         13    1    1    2    0    0  0.14270657347E+02  0.97304206323E+01  0.10438840223E+03  0.10580776167E+03  0.10566000000E+00 0.  1.
        994    1    1    2    0    0 -0.17110248374E+02 -0.81374424336E+01  0.25227529178E+01  0.17226370149E+03  0.17120000000E+03 0.  0.
        998    1    1    2    0    0  0.28395910269E+01 -0.15929781987E+01  0.13930888411E+04  0.13931285368E+04  0.10000000000E+02 0.  1.
</event>
<event>
 5    1  0.9130022E-009  0.3836500E+03  0.7957747E-01  0.3435418E+00
         13   -1    0    0    0    0  0.00000000000E+00  0.00000000000E+00  0.14999999963E+04  0.15000000000E+04  0.10566000000E+00 0. -1.
        994   -1    0    0    0    0 -0.00000000000E+00 -0.00000000000E+00  0.11368683772E-12  0.17120000000E+03  0.17120000000E+03 0.  0.
         13    1    1    2    0    0  0.42291048703E+00 -0.17691728463E+02  0.64867613907E+02  0.67238341795E+02  0.10566000000E+00 0. -1.
        994    1    1    2    0    0 -0.33217361225E+01  0.18730571830E+02  0.34980922083E+01  0.17228913170E+03  0.17120000000E+03 0.  0.
        998    1    1    2    0    0  0.28988256355E+01 -0.10388433672E+01  0.14316342902E+04  0.14316725265E+04  0.10000000000E+02 0. -1.
</event>
<event>
 5    1  0.9247455E-009  0.3858713E+03  0.7957747E-01  0.3425985E+00
         13   -1    0    0    0    0  0.00000000000E+00  0.00000000000E+00  0.14999999963E+04  0.15000000000E+04  0.10566000000E+00 0. -1.
        994   -1    0    0    0    0 -0.00000000000E+00 -0.00000000000E+00  0.11368683772E-12  0.17120000000E+03  0.17120000000E+03 0.  0.
         13    1    1    2    0    0  0.47061072274E+01  0.10746443577E+02  0.56387206597E+02  0.57594806421E+02  0.10566000000E+00 0. -1.
        994    1    1    2    0    0 -0.24284976617E+02 -0.31107364778E+01  0.31664088753E+01  0.17297081521E+03  0.17120000000E+03 0.  0.
        998    1    1    2    0    0  0.19578869389E+02 -0.76357070989E+01  0.14404463808E+04  0.14406343784E+04  0.10000000000E+02 0. -1.
</event>
<event>
 5    1  0.9130022E-009  0.3785593E+03  0.7957747E-01  0.3457456E+00
         13   -1    0    0    0    0  0.00000000000E+00  0.00000000000E+00  0.14999999963E+04  0.15000000000E+04  0.10566000000E+00 0.  1.
        994   -1    0    0    0    0 -0.00000000000E+00 -0.00000000000E+00  0.11368683772E-12  0.17120000000E+03  0.17120000000E+03 0.  0.
         13    1    1    2    0    0 -0.38385446210E+02  0.22301234789E+02  0.19959893862E+03  0.20447624560E+03  0.10566000000E+00 0.  1.
        994    1    1    2    0    0  0.31041299069E+02 -0.22392340697E+00  0.81056552645E+01  0.17418023435E+03  0.17120000000E+03 0.  0.
        998    1    1    2    0    0  0.73441471411E+01 -0.22077311382E+02  0.12922954024E+04  0.12925435201E+04  0.10000000000E+02 0.  1.
</event>
<event>
 5    1  0.9130022E-009  0.3831016E+03  0.7957747E-01  0.3437764E+00
         13   -1    0    0    0    0  0.00000000000E+00  0.00000000000E+00  0.14999999963E+04  0.15000000000E+04  0.10566000000E+00 0. -1.
        994   -1    0    0    0    0 -0.00000000000E+00 -0.00000000000E+00  0.11368683772E-12  0.17120000000E+03  0.17120000000E+03 0.  0.
         13    1    1    2    0    0 -0.20654376386E+01 -0.12484402627E+02  0.30142948664E+02  0.32691510516E+02  0.10566000000E+00 0. -1.
        994    1    1    2    0    0  0.39737886525E+01  0.88778509082E+01  0.28887301034E+01  0.17150041398E+03  0.17120000000E+03 0.  0.
        998    1    1    2    0    0 -0.19083510138E+01  0.36065517193E+01  0.14669683175E+04  0.14670080755E+04  0.10000000000E+02 0. -1.
</event>
<event>
 5    1  0.9130022E-009  0.3805464E+03  0.7957747E-01  0.3448783E+00
         13   -1    0    0    0    0  0.00000000000E+00  0.00000000000E+00  0.14999999963E+04  0.15000000000E+04  0.10566000000E+00 0. -1.
        994   -1    0    0    0    0 -0.00000000000E+00 -0.00000000000E+00  0.11368683772E-12  0.17120000000E+03  0.17120000000E+03 0.  0.
         13    1    1    2    0    0  0.28553080603E+02  0.17272861046E+02  0.15546314440E+03  0.15900449859E+03  0.10566000000E+00 0. -1.
        994    1    1    2    0    0 -0.24131684108E+01 -0.10238931527E+02  0.42269357666E+01  0.17157495763E+03  0.17120000000E+03 0.  0.
        998    1    1    2    0    0 -0.26139912192E+02 -0.70339295187E+01  0.13403099161E+04  0.13406205438E+04  0.10000000000E+02 0. -1.
</event>
<event>
 5    1  0.9130022E-009  0.3823700E+03  0.7957747E-01  0.3440904E+00
         13   -1    0    0    0    0  0.00000000000E+00  0.00000000000E+00  0.14999999963E+04  0.15000000000E+04  0.10566000000E+00 0.  1.
        994   -1    0    0    0    0 -0.00000000000E+00 -0.00000000000E+00  0.11368683772E-12  0.17120000000E+03  0.17120000000E+03 0.  0.
         13    1    1    2    0    0  0.10551197640E+02 -0.14439546937E+02  0.53772323278E+02  0.56668352739E+02  0.10566000000E+00 0.  1.
        994    1    1    2    0    0 -0.13348161871E+02  0.28833437659E+01  0.35603606058E+01  0.17178068362E+03  0.17120000000E+03 0.  0.
        998    1    1    2    0    0  0.27969642309E+01  0.11556203171E+02  0.14426673124E+04  0.14427509636E+04  0.10000000000E+02 0.  1.
</event>
<event>
 5    1  0.9130022E-009  0.3770824E+03  0.7957747E-01  0.3463962E+00
         13   -1    0    0    0    0  0.00000000000E+00  0.00000000000E+00  0.14999999963E+04  0.15000000000E+04  0.10566000000E+00 0.  1.
        994   -1    0    0    0    0 -0.00000000000E+00 -0.00000000000E+00  0.11368683772E-12  0.17120000000E+03  0.17120000000E+03 0.  0.
         13    1    1    2    0    0  0.21943453157E+02 -0.88536169825E+02  0.45955569850E+03  0.46852067157E+03  0.10566000000E+00 0.  1.
        994    1    1    2    0    0  0.40414237487E-01  0.10436504238E+03  0.43310539146E+02  0.20512753717E+03  0.17120000000E+03 0.  0.
        998    1    1    2    0    0 -0.21983867395E+02 -0.15828872558E+02  0.99713375863E+03  0.99755179126E+03  0.10000000000E+02 0.  1.
</event>
<event>
 5    1  0.9130022E-009  0.3765741E+03  0.7957747E-01  0.3466213E+00
         13   -1    0    0    0    0  0.00000000000E+00  0.00000000000E+00  0.14999999963E+04  0.15000000000E+04  0.10566000000E+00 0.  1.
        994   -1    0    0    0    0 -0.00000000000E+00 -0.00000000000E+00  0.11368683772E-12  0.17120000000E+03  0.17120000000E+03 0.  0.
         13    1    1    2    0    0 -0.10072041534E+02  0.24274922780E+02  0.54388443946E+02  0.60405561793E+02  0.10566000000E+00 0.  1.
        994    1    1    2    0    0  0.20662926422E+02 -0.22275676572E+02  0.90003850400E+01  0.17410803895E+03  0.17120000000E+03 0.  0.
        998    1    1    2    0    0 -0.10590884888E+02 -0.19992462079E+01  0.14366111673E+04  0.14366863993E+04  0.10000000000E+02 0.  1.
</event>
<event>
 5    1  0.9130022E-009  0.3806439E+03  0.7957747E-01  0.3448360E+00
         13   -1    0    0    0    0  0.00000000000E+00  0.00000000000E+00  0.14999999963E+04  0.15000000000E+04  0.10566000000E+00 0. -1.
        994   -1    0    0    0    0 -0.00000000000E+00 -0.00000000000E+00  0.11368683772E-12  0.17120000000E+03  0.17120000000E+03 0.  0.
         13    1    1    2    0    0  0.29171997764E+02 -0.91442538693E+01  0.11776094064E+03  0.12166459278E+03  0.10566000000E+00 0. -1.
        994    1    1    2    0    0 -0.23656252168E+02  0.36244158081E+01  0.57214172554E+01  0.17295932838E+03  0.17120000000E+03 0.  0.
        998    1    1    2    0    0 -0.55157455963E+01  0.55198380613E+01  0.13765176384E+04  0.13765760788E+04  0.10000000000E+02 0. -1.
</event>
<event>
 5    1  0.1414700E-008  0.3859476E+03  0.7957747E-01  0.3425663E+00
         13   -1    0    0    0    0  0.00000000000E+00  0.00000000000E+00  0.14999999963E+04  0.15000000000E+04  0.10566000000E+00 0. -1.
        994   -1    0    0    0    0 -0.00000000000E+00 -0.00000000000E+00  0.11368683772E-12  0.17120000000E+03  0.17120000000E+03 0.  0.
         13    1    1    2    0    0  0.52114185820E+01  0.86637042163E+01  0.43079488632E+02  0.44250109143E+02  0.10566000000E+00 0. -1.
        994    1    1    2    0    0 -0.26888861113E+01 -0.12642775698E+02  0.17083453584E+01  0.17169574348E+03  0.17120000000E+03 0.  0.
        998    1    1    2    0    0 -0.25225324707E+01  0.39790714812E+01  0.14552121623E+04  0.14552541474E+04  0.10000000000E+02 0. -1.
</event>
<event>
 5    1  0.9130022E-009  0.3752640E+03  0.7957747E-01  0.3472043E+00
         13   -1    0    0    0    0  0.00000000000E+00  0.00000000000E+00  0.14999999963E+04  0.15000000000E+04  0.10566000000E+00 0. -1.
        994   -1    0    0    0    0 -0.00000000000E+00 -0.00000000000E+00  0.11368683772E-12  0.17120000000E+03  0.17120000000E+03 0.  0.
         13    1    1    2    0    0 -0.14361249203E+03  0.46882429014E+02  0.62912662356E+03  0.64701068743E+03  0.10566000000E+00 0. -1.
        994    1    1    2    0    0  0.16772819177E+03 -0.62429622818E+02  0.12450438883E+03  0.27720206882E+03  0.17120000000E+03 0.  0.
        998    1    1    2    0    0 -0.24115699742E+02  0.15547193804E+02  0.74636898389E+03  0.74698724375E+03  0.10000000000E+02 0.  1.
</event>
<event>
 5    1  0.9130022E-009  0.3729332E+03  0.7957747E-01  0.3482518E+00
         13   -1    0    0    0    0  0.00000000000E+00  0.00000000000E+00  0.14999999963E+04  0.15000000000E+04  0.10566000000E+00 0. -1.
        994   -1    0    0    0    0 -0.00000000000E+00 -0.00000000000E+00  0.11368683772E-12  0.17120000000E+03  0.17120000000E+03 0.  0.
         13    1    1    2    0    0 -0.47303271370E+02 -0.84536944778E+02  0.57024157410E+03  0.57841123650E+03  0.10566000000E+00 0. -1.
        994    1    1    2    0    0  0.15294865077E+02  0.59991714849E+01  0.13452283977E+02  0.17251181670E+03  0.17120000000E+03 0.  0.
        998    1    1    2    0    0  0.32008406294E+02  0.78537773293E+02  0.91630613820E+03  0.92027694680E+03  0.10000000000E+02 0. -1.
</event>
<event>
 5    1  0.9130022E-009  0.3834550E+03  0.7957747E-01  0.3436251E+00
         13   -1    0    0    0    0  0.00000000000E+00  0.00000000000E+00  0.14999999963E+04  0.15000000000E+04  0.10566000000E+00 0. -1.
        994   -1    0    0    0    0 -0.00000000000E+00 -0.00000000000E+00  0.11368683772E-12  0.17120000000E+03  0.17120000000E+03 0.  0.
         13    1    1    2    0    0  0.23722189145E+02  0.12312734911E+02  0.12467181749E+03  0.12750458400E+03  0.10566000000E+00 0. -1.
        994    1    1    2    0    0 -0.32349858934E+02 -0.25657591653E+02  0.80544368381E+01  0.17629276598E+03  0.17120000000E+03 0.  0.
        998    1    1    2    0    0  0.86276697893E+01  0.13344856742E+02  0.13672737419E+04  0.13674026500E+04  0.10000000000E+02 0. -1.
</event>
<event>
 5    1  0.9130022E-009  0.3733544E+03  0.7957747E-01  0.3480615E+00
         13   -1    0    0    0    0  0.00000000000E+00  0.00000000000E+00  0.14999999963E+04  0.15000000000E+04  0.10566000000E+00 0. -1.
        994   -1    0    0    0    0 -0.00000000000E+00 -0.00000000000E+00  0.11368683772E-12  0.17120000000E+03  0.17120000000E+03 0.  0.
         13    1    1    2    0    0 -0.32686149453E+02  0.34627405042E+02  0.14589874049E+03  0.15347278321E+03  0.10566000000E+00 0. -1.
        994    1    1    2    0    0  0.37884180749E+02 -0.79221558081E+01  0.12663828465E+02  0.17597665827E+03  0.17120000000E+03 0.  0.
        998    1    1    2    0    0 -0.51980312962E+01 -0.26705249234E+02  0.13414374273E+04  0.13417505585E+04  0.10000000000E+02 0. -1.
</event>
<event>
 5    1  0.9130022E-009  0.3854356E+03  0.7957747E-01  0.3427827E+00
         13   -1    0    0    0    0  0.00000000000E+00  0.00000000000E+00  0.14999999963E+04  0.15000000000E+04  0.10566000000E+00 0.  1.
        994   -1    0    0    0    0 -0.00000000000E+00 -0.00000000000E+00  0.11368683772E-12  0.17120000000E+03  0.17120000000E+03 0.  0.
         13    1    1    2    0    0 -0.14511847878E+02  0.37658356685E+01  0.79474001767E+02  0.80875851575E+02  0.10566000000E+00 0.  1.
        994    1    1    2    0    0  0.99924047842E+01 -0.28808151509E+01  0.17692467009E+01  0.17152468476E+03  0.17120000000E+03 0.  0.
        998    1    1    2    0    0  0.45194430939E+01 -0.88502051754E+00  0.14187567478E+04  0.14187994637E+04  0.10000000000E+02 0.  1.
</event>
<event>
 5    1  0.9130022E-009  0.3849207E+03  0.7957747E-01  0.3430009E+00
         13   -1    0    0    0    0  0.00000000000E+00  0.00000000000E+00  0.14999999963E+04  0.15000000000E+04  0.10566000000E+00 0.  1.
        994   -1    0    0    0    0 -0.00000000000E+00 -0.00000000000E+00  0.11368683772E-12  0.17120000000E+03  0.17120000000E+03 0.  0.
         13    1    1    2    0    0 -0.13686353787E+02  0.99080916716E+01  0.72011314919E+02  0.73967068354E+02  0.10566000000E+00 0.  1.
        994    1    1    2    0    0  0.18926936008E+02 -0.39233839079E+02  0.79365095460E+01  0.17683311686E+03  0.17120000000E+03 0.  0.
        998    1    1    2    0    0 -0.52405822218E+01  0.29325747407E+02  0.14200521718E+04  0.14203998148E+04  0.10000000000E+02 0.  1.
</event>
<event>
 5    1  0.9130022E-009  0.3791937E+03  0.7957747E-01  0.3454677E+00
         13   -1    0    0    0    0  0.00000000000E+00  0.00000000000E+00  0.14999999963E+04  0.15000000000E+04  0.10566000000E+00 0.  1.
        994   -1    0    0    0    0 -0.00000000000E+00 -0.00000000000E+00  0.11368683772E-12  0.17120000000E+03  0.17120000000E+03 0.  0.
         13    1    1    2    0    0 -0.58944671501E+02  0.25890811369E+02  0.38437573503E+03  0.38973006717E+03  0.10566000000E+00 0.  1.
        994    1    1    2    0    0  0.60832886734E+02  0.23153440488E+01  0.17064562905E+02  0.18250106913E+03  0.17120000000E+03 0.  0.
        998    1    1    2    0    0 -0.18882152330E+01 -0.28206155418E+02  0.10985596983E+04  0.10989688637E+04  0.10000000000E+02 0.  0.
</event>
<event>
 5    1  0.9130022E-009  0.4056801E+03  0.7957747E-01  0.3346437E+00
         13   -1    0    0    0    0  0.00000000000E+00  0.00000000000E+00  0.14999999963E+04  0.15000000000E+04  0.10566000000E+00 0.  1.
        994   -1    0    0    0    0 -0.00000000000E+00 -0.00000000000E+00  0.11368683772E-12  0.17120000000E+03  0.17120000000E+03 0.  0.
         13    1    1    2    0    0  0.35771463062E+01  0.24300722440E+02 -0.37798363076E+01  0.24851949890E+02  0.10566000000E+00 0.  1.
        994    1    1    2    0    0 -0.24443465664E+01 -0.25420735787E+02  0.33837261131E+02  0.17637060095E+03  0.17120000000E+03 0.  0.
        998    1    1    2    0    0 -0.11327997398E+01  0.11200133465E+01  0.14699425715E+04  0.14699774492E+04  0.10000000000E+02 0.  1.
</event>
<event>
 5    1  0.9130022E-009  0.3852296E+03  0.7957747E-01  0.3428699E+00
         13   -1    0    0    0    0  0.00000000000E+00  0.00000000000E+00  0.14999999963E+04  0.15000000000E+04  0.10566000000E+00 0. -1.
        994   -1    0    0    0    0 -0.00000000000E+00 -0.00000000000E+00  0.11368683772E-12  0.17120000000E+03  0.17120000000E+03 0.  0.
         13    1    1    2    0    0 -0.68345108544E+01  0.87448686476E+01  0.39487997579E+02  0.41018244515E+02  0.10566000000E+00 0. -1.
        994    1    1    2    0    0 -0.44654219686E+01 -0.20141085535E+02  0.29160679626E+01  0.17246317512E+03  0.17120000000E+03 0.  0.
        998    1    1    2    0    0  0.11299932823E+02  0.11396216888E+02  0.14575959307E+04  0.14577185804E+04  0.10000000000E+02 0. -1.
</event>
<event>
 5    1  0.9130022E-009  0.3833727E+03  0.7957747E-01  0.3436603E+00
         13   -1    0    0    0    0  0.00000000000E+00  0.00000000000E+00  0.14999999963E+04  0.15000000000E+04  0.10566000000E+00 0. -1.
        994   -1    0    0    0    0 -0.00000000000E+00 -0.00000000000E+00  0.11368683772E-12  0.17120000000E+03  0.17120000000E+03 0.  0.
         13    1    1    2    0    0  0.13341863671E+02  0.17192210226E+01  0.35633876735E+02  0.38088651621E+02  0.10566000000E+00 0. -1.
        994    1    1    2    0    0 -0.14322500900E+02  0.16926519448E+01  0.31281764401E+01  0.17183487594E+03  0.17120000000E+03 0.  0.
        998    1    1    2    0    0  0.98063722849E+00 -0.34118729674E+01  0.14612379431E+04  0.14612764724E+04  0.10000000000E+02 0. -1.
</event>
<event>
 5    1  0.9130022E-009  0.3726908E+03  0.7957747E-01  0.3483615E+00
         13   -1    0    0    0    0  0.00000000000E+00  0.00000000000E+00  0.14999999963E+04  0.15000000000E+04  0.10566000000E+00 0.  1.
        994   -1    0    0    0    0 -0.00000000000E+00 -0.00000000000E+00  0.11368683772E-12  0.17120000000E+03  0.17120000000E+03 0.  0.
         13    1    1    2    0    0  0.39344050954E+02 -0.58166915212E+02  0.42107350659E+03  0.42688904118E+03  0.10566000000E+00 0.  1.
        994    1    1    2    0    0 -0.20467320885E+02 -0.41396988490E+01  0.93646065093E+01  0.17272285369E+03  0.17120000000E+03 0.  0.
        998    1    1    2    0    0 -0.18876730068E+02  0.62306614061E+02  0.10695618832E+04  0.10715881051E+04  0.10000000000E+02 0.  1.
</event>
<event>
 5    1  0.9130022E-009  0.3832438E+03  0.7957747E-01  0.3437155E+00
         13   -1    0    0    0    0  0.00000000000E+00  0.00000000000E+00  0.14999999963E+04  0.15000000000E+04  0.10566000000E+00 0.  1.
        994   -1    0    0    0    0 -0.00000000000E+00 -0.00000000000E+00  0.11368683772E-12  0.17120000000E+03  0.17120000000E+03 0.  0.
         13    1    1    2    0    0  0.12309760635E+02 -0.26527584071E+01  0.29851104979E+02  0.32398564267E+02  0.10566000000E+00 0.  1.
        994    1    1    2    0    0 -0.16960930539E+02  0.41695811116E+01  0.35142201373E+01  0.17212451399E+03  0.17120000000E+03 0.  0.
        998    1    1    2    0    0  0.46511699040E+01 -0.15168227045E+01  0.14666346712E+04  0.14666769217E+04  0.10000000000E+02 0.  1.
</event>
<event>
 5    1  0.9130022E-009  0.3774349E+03  0.7957747E-01  0.3462404E+00
         13   -1    0    0    0    0  0.00000000000E+00  0.00000000000E+00  0.14999999963E+04  0.15000000000E+04  0.10566000000E+00 0. -1.
        994   -1    0    0    0    0 -0.00000000000E+00 -0.00000000000E+00  0.11368683772E-12  0.17120000000E+03  0.17120000000E+03 0.  0.
         13    1    1    2    0    0  0.24615909309E+02  0.38615328192E+02  0.16827125498E+03  0.17439126406E+03  0.10566000000E+00 0. -1.
        994    1    1    2    0    0 -0.32855402151E+02 -0.36518663688E+02  0.13613027349E+02  0.17862767076E+03  0.17120000000E+03 0.  0.
        998    1    1    2    0    0  0.82394928418E+01 -0.20966645042E+01  0.13181157139E+04  0.13181810652E+04  0.10000000000E+02 0. -1.
</event>
<event>
 5    1  0.9130022E-009  0.3844738E+03  0.7957747E-01  0.3431907E+00
         13   -1    0    0    0    0  0.00000000000E+00  0.00000000000E+00  0.14999999963E+04  0.15000000000E+04  0.10566000000E+00 0.  1.
        994   -1    0    0    0    0 -0.00000000000E+00 -0.00000000000E+00  0.11368683772E-12  0.17120000000E+03  0.17120000000E+03 0.  0.
         13    1    1    2    0    0  0.20246320606E+02  0.18978356323E+01  0.11097214721E+03  0.11281996232E+03  0.10566000000E+00 0.  1.
        994    1    1    2    0    0 -0.11010314654E+02  0.42167269972E+01  0.23496921378E+01  0.17162158625E+03  0.17120000000E+03 0.  0.
        998    1    1    2    0    0 -0.92360059524E+01 -0.61145626295E+01  0.13866781569E+04  0.13867584514E+04  0.10000000000E+02 0.  1.
</event>
<event>
 5    1  0.9130022E-009  0.3741192E+03  0.7957747E-01  0.3477171E+00
         13   -1    0    0    0    0  0.00000000000E+00  0.00000000000E+00  0.14999999963E+04  0.15000000000E+04  0.10566000000E+00 0. -1.
        994   -1    0    0    0    0 -0.00000000000E+00 -0.00000000000E+00  0.11368683772E-12  0.17120000000E+03  0.17120000000E+03 0.  0.
         13    1    1    2    0    0  0.61859045623E+02  0.57835264988E+02  0.37489189246E+03  0.38433761408E+03  0.10566000000E+00 0. -1.
        994    1    1    2    0    0 -0.88962794637E+02 -0.31274087425E+02  0.38082381481E+02  0.19912848905E+03  0.17120000000E+03 0.  0.
        998    1    1    2    0    0  0.27103749014E+02 -0.26561177563E+02  0.10870257223E+04  0.10877338969E+04  0.10000000000E+02 0. -1.
</event>
<event>
 5    1  0.9130022E-009  0.3787700E+03  0.7957747E-01  0.3456532E+00
         13   -1    0    0    0    0  0.00000000000E+00  0.00000000000E+00  0.14999999963E+04  0.15000000000E+04  0.10566000000E+00 0. -1.
        994   -1    0    0    0    0 -0.00000000000E+00 -0.00000000000E+00  0.11368683772E-12  0.17120000000E+03  0.17120000000E+03 0.  0.
         13    1    1    2    0    0  0.26765171274E+02  0.65274897258E-01  0.71313028688E+02  0.76170452794E+02  0.10566000000E+00 0. -1.
        994    1    1    2    0    0 -0.24434910881E+02  0.46045273355E+01  0.68333299576E+01  0.17313116687E+03  0.17120000000E+03 0.  0.
        998    1    1    2    0    0 -0.23302603928E+01 -0.46698022328E+01  0.14218536376E+04  0.14218983803E+04  0.10000000000E+02 0. -1.
</event>
<event>
 5    1  0.9130022E-009  0.3869915E+03  0.7957747E-01  0.3421270E+00
         13   -1    0    0    0    0  0.00000000000E+00  0.00000000000E+00  0.14999999963E+04  0.15000000000E+04  0.10566000000E+00 0. -1.
        994   -1    0    0    0    0 -0.00000000000E+00 -0.00000000000E+00  0.11368683772E-12  0.17120000000E+03  0.17120000000E+03 0.  0.
         13    1    1    2    0    0  0.13506398491E+03  0.12309496350E+03  0.10150822651E+04  0.10314003423E+04  0.10566000000E+00 0. -1.
        994    1    1    2    0    0 -0.16085546637E+03 -0.14581342046E+03  0.17368423012E+03  0.32651445058E+03  0.17120000000E+03 0.  0.
        998    1    1    2    0    0  0.25791481461E+02  0.22718456961E+02  0.31123350110E+03  0.31328520714E+03  0.10000000000E+02 0. -1.
</event>
<event>
 5    1  0.9130022E-009  0.2943135E+03  0.7957747E-01  0.3937471E+00
         13   -1    0    0    0    0  0.00000000000E+00  0.00000000000E+00  0.14999999963E+04  0.15000000000E+04  0.10566000000E+00 0. -1.
        994   -1    0    0    0    0 -0.00000000000E+00 -0.00000000000E+00  0.11368683772E-12  0.17120000000E+03  0.17120000000E+03 0.  0.
         13    1    1    2    0    0  0.22284893472E+03  0.10568391212E+03  0.56442869377E+03  0.61596306586E+03  0.10566000000E+00 0. -1.
        994    1    1    2    0    0 -0.13953136957E+03 -0.13474893240E+03  0.23643014894E+03  0.35047814939E+03  0.17120000000E+03 0.  0.
        998    1    1    2    0    0 -0.83317565149E+02  0.29065020275E+02  0.69914115357E+03  0.70475878475E+03  0.10000000000E+02 0. -1.
</event>
<event>
 5    1  0.9130022E-009  0.3722252E+03  0.7957747E-01  0.3485726E+00
         13   -1    0    0    0    0  0.00000000000E+00  0.00000000000E+00  0.14999999963E+04  0.15000000000E+04  0.10566000000E+00 0. -1.
        994   -1    0    0    0    0 -0.00000000000E+00 -0.00000000000E+00  0.11368683772E-12  0.17120000000E+03  0.17120000000E+03 0.  0.
         13    1    1    2    0    0 -0.10484132320E+02 -0.19831683485E+02  0.27528109885E+02  0.35510853245E+02  0.10566000000E+00 0. -1.
        994    1    1    2    0    0  0.11344163497E+01  0.19069703629E+02  0.93638292298E+01  0.17251684496E+03  0.17120000000E+03 0.  0.
        998    1    1    2    0    0  0.93497159699E+01  0.76197985600E+00  0.14631080572E+04  0.14631723018E+04  0.10000000000E+02 0. -1.
</event>
<event>
 5    1  0.9130022E-009  0.3805020E+03  0.7957747E-01  0.3448976E+00
         13   -1    0    0    0    0  0.00000000000E+00  0.00000000000E+00  0.14999999963E+04  0.15000000000E+04  0.10566000000E+00 0. -1.
        994   -1    0    0    0    0 -0.00000000000E+00 -0.00000000000E+00  0.11368683772E-12  0.17120000000E+03  0.17120000000E+03 0.  0.
         13    1    1    2    0    0  0.26604636752E+02 -0.11342081495E+02  0.12316510792E+03  0.12651523419E+03  0.10566000000E+00 0. -1.
        994    1    1    2    0    0  0.65535560658E+01 -0.20385682775E+01  0.40371847791E+01  0.17138507438E+03  0.17120000000E+03 0.  0.
        998    1    1    2    0    0 -0.33158192818E+02  0.13380649772E+02  0.13727977036E+04  0.13732996914E+04  0.10000000000E+02 0. -1.
</event>
<event>
 5    1  0.9130022E-009  0.3843950E+03  0.7957747E-01  0.3432242E+00
         13   -1    0    0    0    0  0.00000000000E+00  0.00000000000E+00  0.14999999963E+04  0.15000000000E+04  0.10566000000E+00 0.  1.
        994   -1    0    0    0    0 -0.00000000000E+00 -0.00000000000E+00  0.11368683772E-12  0.17120000000E+03  0.17120000000E+03 0.  0.
         13    1    1    2    0    0  0.70394172175E+01  0.12531013199E+02  0.54464986970E+02  0.56329616156E+02  0.10566000000E+00 0.  1.
        994    1    1    2    0    0 -0.11996554011E+02  0.72844056478E+00  0.24069241658E+01  0.17163822773E+03  0.17120000000E+03 0.  0.
        998    1    1    2    0    0  0.49571367935E+01 -0.13259453764E+02  0.14431280851E+04  0.14432321561E+04  0.10000000000E+02 0.  1.
</event>
<event>
 5    1  0.9130022E-009  0.3701292E+03  0.7957747E-01  0.3495297E+00
         13   -1    0    0    0    0  0.00000000000E+00  0.00000000000E+00  0.14999999963E+04  0.15000000000E+04  0.10566000000E+00 0.  1.
        994   -1    0    0    0    0 -0.00000000000E+00 -0.00000000000E+00  0.11368683772E-12  0.17120000000E+03  0.17120000000E+03 0.  0.
         13    1    1    2    0    0 -0.44432921602E+02 -0.13552735818E+02  0.11757134776E+03  0.12641595685E+03  0.10566000000E+00 0.  1.
        994    1    1    2    0    0  0.20303585444E+02  0.60758838547E+01  0.10755389671E+02  0.17284174945E+03  0.17120000000E+03 0.  0.
        998    1    1    2    0    0  0.24129336157E+02  0.74768519635E+01  0.13716732589E+04  0.13719422937E+04  0.10000000000E+02 0.  1.
</event>
<event>
 5    1  0.9130022E-009  0.3848267E+03  0.7957747E-01  0.3430407E+00
         13   -1    0    0    0    0  0.00000000000E+00  0.00000000000E+00  0.14999999963E+04  0.15000000000E+04  0.10566000000E+00 0. -1.
        994   -1    0    0    0    0 -0.00000000000E+00 -0.00000000000E+00  0.11368683772E-12  0.17120000000E+03  0.17120000000E+03 0.  0.
         13    1    1    2    0    0  0.13560712208E+02 -0.14731006458E+02  0.11758112547E+03  0.11927375109E+03  0.10566000000E+00 0. -1.
        994    1    1    2    0    0 -0.82009434761E+01  0.83722526811E+01  0.21682680739E+01  0.17161436850E+03  0.17120000000E+03 0.  0.
        998    1    1    2    0    0 -0.53597687318E+01  0.63587537770E+01  0.13802506027E+04  0.13803118804E+04  0.10000000000E+02 0. -1.
</event>
<event>
 5    1  0.9130022E-009  0.3782588E+03  0.7957747E-01  0.3458775E+00
         13   -1    0    0    0    0  0.00000000000E+00  0.00000000000E+00  0.14999999963E+04  0.15000000000E+04  0.10566000000E+00 0. -1.
        994   -1    0    0    0    0 -0.00000000000E+00 -0.00000000000E+00  0.11368683772E-12  0.17120000000E+03  0.17120000000E+03 0.  0.
         13    1    1    2    0    0  0.30648643084E+01 -0.18178198496E+02  0.32225154979E+02  0.37125625534E+02  0.10566000000E+00 0. -1.
        994    1    1    2    0    0  0.87252828870E+01  0.10249412590E+02  0.56240971090E+01  0.17182040475E+03  0.17120000000E+03 0.  0.
        998    1    1    2    0    0 -0.11790147195E+02  0.79287859061E+01  0.14621507442E+04  0.14622539697E+04  0.10000000000E+02 0. -1.
</event>
<event>
 5    1  0.9130022E-009  0.3830369E+03  0.7957747E-01  0.3438041E+00
         13   -1    0    0    0    0  0.00000000000E+00  0.00000000000E+00  0.14999999963E+04  0.15000000000E+04  0.10566000000E+00 0. -1.
        994   -1    0    0    0    0 -0.00000000000E+00 -0.00000000000E+00  0.11368683772E-12  0.17120000000E+03  0.17120000000E+03 0.  0.
         13    1    1    2    0    0  0.10122064747E+01 -0.22222579132E+02  0.88947594853E+02  0.91687258545E+02  0.10566000000E+00 0. -1.
        994    1    1    2    0    0  0.16539206524E+01  0.23623150285E+02  0.44661845637E+01  0.17288775401E+03  0.17120000000E+03 0.  0.
        998    1    1    2    0    0 -0.26661271271E+01 -0.14005711531E+01  0.14065862169E+04  0.14066249874E+04  0.10000000000E+02 0. -1.
</event>
<event>
 5    1  0.9130022E-009  0.3809797E+03  0.7957747E-01  0.3446904E+00
         13   -1    0    0    0    0  0.00000000000E+00  0.00000000000E+00  0.14999999963E+04  0.15000000000E+04  0.10566000000E+00 0. -1.
        994   -1    0    0    0    0 -0.00000000000E+00 -0.00000000000E+00  0.11368683772E-12  0.17120000000E+03  0.17120000000E+03 0.  0.
         13    1    1    2    0    0  0.13185229080E+01 -0.24034868904E+02  0.75500377023E+02  0.79244757054E+02  0.10566000000E+00 0. -1.
        994    1    1    2    0    0 -0.11104911980E+01  0.22880832592E+02  0.53899823120E+01  0.17280988861E+03  0.17120000000E+03 0.  0.
        998    1    1    2    0    0 -0.20803170999E+00  0.11540363120E+01  0.14191096369E+04  0.14191453543E+04  0.10000000000E+02 0.  0.
</event>
<event>
 5    1  0.9130022E-009  0.3787699E+03  0.7957747E-01  0.3456532E+00
         13   -1    0    0    0    0  0.00000000000E+00  0.00000000000E+00  0.14999999963E+04  0.15000000000E+04  0.10566000000E+00 0. -1.
        994   -1    0    0    0    0 -0.00000000000E+00 -0.00000000000E+00  0.11368683772E-12  0.17120000000E+03  0.17120000000E+03 0.  0.
         13    1    1    2    0    0 -0.14605711607E+02  0.13675416655E+02  0.42689942488E+02  0.47146433438E+02  0.10566000000E+00 0. -1.
        994    1    1    2    0    0 -0.16380205129E+02 -0.11087701303E+02  0.60697264648E+01  0.17244573007E+03  0.17120000000E+03 0.  0.
        998    1    1    2    0    0  0.30985916736E+02 -0.25877153523E+01  0.14512403273E+04  0.14516078365E+04  0.10000000000E+02 0. -1.
</event>
<event>
 5    1  0.9130022E-009  0.3716976E+03  0.7957747E-01  0.3488125E+00
         13   -1    0    0    0    0  0.00000000000E+00  0.00000000000E+00  0.14999999963E+04  0.15000000000E+04  0.10566000000E+00 0.  1.
        994   -1    0    0    0    0 -0.00000000000E+00 -0.00000000000E+00  0.11368683772E-12  0.17120000000E+03  0.17120000000E+03 0.  0.
         13    1    1    2    0    0 -0.35274506275E+02  0.61490466729E+02  0.36655136111E+03  0.37334338053E+03  0.10566000000E+00 0.  1.
        994    1    1    2    0    0  0.21314531549E+02 -0.48935785672E+01  0.10030164705E+02  0.17288233157E+03  0.17120000000E+03 0.  0.
        998    1    1    2    0    0  0.13959974726E+02 -0.56596888162E+02  0.11234184705E+04  0.11249742879E+04  0.10000000000E+02 0.  1.
</event>
<event>
 5    1  0.9130022E-009  0.3846127E+03  0.7957747E-01  0.3431316E+00
         13   -1    0    0    0    0  0.00000000000E+00  0.00000000000E+00  0.14999999963E+04  0.15000000000E+04  0.10566000000E+00 0.  1.
        994   -1    0    0    0    0 -0.00000000000E+00 -0.00000000000E+00  0.11368683772E-12  0.17120000000E+03  0.17120000000E+03 0.  0.
         13    1    1    2    0    0  0.91329447631E+01 -0.53838030927E+01  0.30398485868E+02  0.32194333708E+02  0.10566000000E+00 0.  1.
        994    1    1    2    0    0 -0.52802792803E+01  0.61929565152E+01  0.20406733511E+01  0.17140547951E+03  0.17120000000E+03 0.  0.
        998    1    1    2    0    0 -0.38526654828E+01 -0.80915342257E+00  0.14675608371E+04  0.14676001868E+04  0.10000000000E+02 0.  1.
</event>
<event>
 5    1  0.9130022E-009  0.3747601E+03  0.7957747E-01  0.3474296E+00
         13   -1    0    0    0    0  0.00000000000E+00  0.00000000000E+00  0.14999999963E+04  0.15000000000E+04  0.10566000000E+00 0.  1.
        994   -1    0    0    0    0 -0.00000000000E+00 -0.00000000000E+00  0.11368683772E-12  0.17120000000E+03  0.17120000000E+03 0.  0.
         13    1    1    2    0    0 -0.48219913666E+02  0.31089877177E+02  0.25445865453E+03  0.26084661885E+03  0.10566000000E+00 0.  1.
        994    1    1    2    0    0  0.24795223463E+02 -0.64372549840E+01  0.90376751853E+01  0.17334174607E+03  0.17120000000E+03 0.  0.
        998    1    1    2    0    0  0.23424690203E+02 -0.24652622193E+02  0.12365036666E+04  0.12370116351E+04  0.10000000000E+02 0.  1.
</event>
<event>
 5    1  0.9130022E-009  0.3768460E+03  0.7957747E-01  0.3465008E+00
         13   -1    0    0    0    0  0.00000000000E+00  0.00000000000E+00  0.14999999963E+04  0.15000000000E+04  0.10566000000E+00 0.  1.
        994   -1    0    0    0    0 -0.00000000000E+00 -0.00000000000E+00  0.11368683772E-12  0.17120000000E+03  0.17120000000E+03 0.  0.
         13    1    1    2    0    0 -0.39514164237E+02 -0.76384523156E+01  0.12658747893E+03  0.13283115642E+03  0.10566000000E+00 0.  1.
        994    1    1    2    0    0  0.43451819754E+02  0.24412903789E+01  0.12159008851E+02  0.17706298889E+03  0.17120000000E+03 0.  0.
        998    1    1    2    0    0 -0.39376555166E+01  0.51971619367E+01  0.13612535085E+04  0.13613058547E+04  0.10000000000E+02 0.  1.
</event>
<event>
 5    1  0.9130022E-009  0.3801353E+03  0.7957747E-01  0.3450570E+00
         13   -1    0    0    0    0  0.00000000000E+00  0.00000000000E+00  0.14999999963E+04  0.15000000000E+04  0.10566000000E+00 0.  1.
        994   -1    0    0    0    0 -0.00000000000E+00 -0.00000000000E+00  0.11368683772E-12  0.17120000000E+03  0.17120000000E+03 0.  0.
         13    1    1    2    0    0 -0.26126863341E+01 -0.16364809854E+02  0.31509947468E+02  0.35602262357E+02  0.10566000000E+00 0.  1.
        994    1    1    2    0    0  0.21775189314E+01  0.17842809031E+02  0.51452360113E+01  0.17221794586E+03  0.17120000000E+03 0.  0.
        998    1    1    2    0    0  0.43516740274E+00 -0.14779991777E+01  0.14633448128E+04  0.14633797918E+04  0.10000000000E+02 0.  1.
</event>
<event>
 5    1  0.9130022E-009  0.3783468E+03  0.7957747E-01  0.3458389E+00
         13   -1    0    0    0    0  0.00000000000E+00  0.00000000000E+00  0.14999999963E+04  0.15000000000E+04  0.10566000000E+00 0. -1.
        994   -1    0    0    0    0 -0.00000000000E+00 -0.00000000000E+00  0.11368683772E-12  0.17120000000E+03  0.17120000000E+03 0.  0.
         13    1    1    2    0    0  0.28331770661E+02  0.16269880426E+02  0.95092131747E+02  0.10054811247E+03  0.10566000000E+00 0. -1.
        994    1    1    2    0    0 -0.41781498074E+02 -0.13056473337E+02  0.11437941431E+02  0.17707747339E+03  0.17120000000E+03 0.  0.
        998    1    1    2    0    0  0.13449727413E+02 -0.32134070886E+01  0.13934699231E+04  0.13935744141E+04  0.10000000000E+02 0. -1.
</event>
<event>
 5    1  0.9130022E-009  0.3706878E+03  0.7957747E-01  0.3492736E+00
         13   -1    0    0    0    0  0.00000000000E+00  0.00000000000E+00  0.14999999963E+04  0.15000000000E+04  0.10566000000E+00 0.  1.
        994   -1    0    0    0    0 -0.00000000000E+00 -0.00000000000E+00  0.11368683772E-12  0.17120000000E+03  0.17120000000E+03 0.  0.
         13    1    1    2    0    0  0.67825463311E+02  0.16880803568E+03  0.66589717612E+03  0.69030102615E+03  0.10566000000E+00 0.  1.
        994    1    1    2    0    0 -0.69212129662E+02 -0.17195203554E+03  0.14361809213E+03  0.29033328746E+03  0.17120000000E+03 0.  0.
        998    1    1    2    0    0  0.13866663509E+01  0.31439998587E+01  0.69048472803E+03  0.69056568639E+03  0.10000000000E+02 0.  1.
</event>
<event>
 5    1  0.9130022E-009  0.3701452E+03  0.7957747E-01  0.3495224E+00
         13   -1    0    0    0    0  0.00000000000E+00  0.00000000000E+00  0.14999999963E+04  0.15000000000E+04  0.10566000000E+00 0. -1.
        994   -1    0    0    0    0 -0.00000000000E+00 -0.00000000000E+00  0.11368683772E-12  0.17120000000E+03  0.17120000000E+03 0.  0.
         13    1    1    2    0    0 -0.38051064533E+02  0.35022759806E+02  0.13287894509E+03  0.14258787617E+03  0.10566000000E+00 0. -1.
        994    1    1    2    0    0 -0.70997892763E+01 -0.10499206895E+02  0.11577706270E+02  0.17205848900E+03  0.17120000000E+03 0.  0.
        998    1    1    2    0    0  0.45150853809E+02 -0.24523552910E+02  0.13555433449E+04  0.13565536348E+04  0.10000000000E+02 0. -1.
</event>
<event>
 5    1  0.9130022E-009  0.3858665E+03  0.7957747E-01  0.3426006E+00
         13   -1    0    0    0    0  0.00000000000E+00  0.00000000000E+00  0.14999999963E+04  0.15000000000E+04  0.10566000000E+00 0. -1.
        994   -1    0    0    0    0 -0.00000000000E+00 -0.00000000000E+00  0.11368683772E-12  0.17120000000E+03  0.17120000000E+03 0.  0.
         13    1    1    2    0    0  0.63150313532E+01 -0.92198006204E+01  0.51367248053E+02  0.52568904126E+02  0.10566000000E+00 0. -1.
        994    1    1    2    0    0 -0.66742910008E+01  0.86367181258E+01  0.15913481047E+01  0.17155498083E+03  0.17120000000E+03 0.  0.
        998    1    1    2    0    0  0.35925964751E+00  0.58308249464E+00  0.14470414001E+04  0.14470761150E+04  0.10000000000E+02 0. -1.
</event>
<event>
 5    1  0.9130022E-009  0.2926811E+03  0.7957747E-01  0.3949696E+00
         13   -1    0    0    0    0  0.00000000000E+00  0.00000000000E+00  0.14999999963E+04  0.15000000000E+04  0.10566000000E+00 0.  1.
        994   -1    0    0    0    0 -0.00000000000E+00 -0.00000000000E+00  0.11368683772E-12  0.17120000000E+03  0.17120000000E+03 0.  0.
         13    1    1    2    0    0  0.26501276645E+02  0.18741704544E+03  0.56573998598E+03  0.59656450572E+03  0.10566000000E+00 0.  1.
        994    1    1    2    0    0 -0.29585087735E+02 -0.19274074888E+03  0.16984579002E+03  0.31013111112E+03  0.17120000000E+03 0.  0.
        998    1    1    2    0    0  0.30838110907E+01  0.53237034430E+01  0.76441422028E+03  0.76450438316E+03  0.10000000000E+02 0.  0.
</event>
<event>
 5    1  0.9130022E-009  0.3800869E+03  0.7957747E-01  0.3450780E+00
         13   -1    0    0    0    0  0.00000000000E+00  0.00000000000E+00  0.14999999963E+04  0.15000000000E+04  0.10566000000E+00 0. -1.
        994   -1    0    0    0    0 -0.00000000000E+00 -0.00000000000E+00  0.11368683772E-12  0.17120000000E+03  0.17120000000E+03 0.  0.
         13    1    1    2    0    0  0.11267759842E+02 -0.48614876868E+01  0.15850142786E+02  0.20045814146E+02  0.10566000000E+00 0. -1.
        994    1    1    2    0    0 -0.21233272827E+02  0.22405243598E+02  0.72801967785E+01  0.17411286018E+03  0.17120000000E+03 0.  0.
        998    1    1    2    0    0  0.99655129846E+01 -0.17543755911E+02  0.14768696567E+04  0.14770413257E+04  0.10000000000E+02 0. -1.
</event>
<event>
 5    1  0.9130022E-009  0.3705844E+03  0.7957747E-01  0.3493209E+00
         13   -1    0    0    0    0  0.00000000000E+00  0.00000000000E+00  0.14999999963E+04  0.15000000000E+04  0.10566000000E+00 0.  1.
        994   -1    0    0    0    0 -0.00000000000E+00 -0.00000000000E+00  0.11368683772E-12  0.17120000000E+03  0.17120000000E+03 0.  0.
         13    1    1    2    0    0  0.84387004031E+01 -0.29610441156E+02  0.53561270323E+02  0.61780342606E+02  0.10566000000E+00 0.  1.
        994    1    1    2    0    0 -0.61434706248E+02 -0.25578513499E+02  0.24404117895E+02  0.18529296925E+03  0.17120000000E+03 0.  0.
        998    1    1    2    0    0  0.52996005845E+02  0.55188954654E+02  0.14220346081E+04  0.14241266881E+04  0.10000000000E+02 0.  1.
</event>
<event>
 5    1  0.9130022E-009  0.3767430E+03  0.7957747E-01  0.3465464E+00
         13   -1    0    0    0    0  0.00000000000E+00  0.00000000000E+00  0.14999999963E+04  0.15000000000E+04  0.10566000000E+00 0.  1.
        994   -1    0    0    0    0 -0.00000000000E+00 -0.00000000000E+00  0.11368683772E-12  0.17120000000E+03  0.17120000000E+03 0.  0.
         13    1    1    2    0    0  0.15729489485E+02  0.53680422797E+00  0.19133260701E+02  0.24774943538E+02  0.10566000000E+00 0.  1.
        994    1    1    2    0    0 -0.69315471455E+01  0.11970617437E+02  0.64332381652E+01  0.17187835402E+03  0.17120000000E+03 0.  0.
        998    1    1    2    0    0 -0.87979423398E+01 -0.12507421665E+02  0.14744334974E+04  0.14745467024E+04  0.10000000000E+02 0.  1.
</event>
<event>
 5    1  0.9130022E-009  0.3872264E+03  0.7957747E-01  0.3420284E+00
         13   -1    0    0    0    0  0.00000000000E+00  0.00000000000E+00  0.14999999963E+04  0.15000000000E+04  0.10566000000E+00 0. -1.
        994   -1    0    0    0    0 -0.00000000000E+00 -0.00000000000E+00  0.11368683772E-12  0.17120000000E+03  0.17120000000E+03 0.  0.
         13    1    1    2    0    0  0.13800181567E+03 -0.58384245581E+02  0.37131301096E+03  0.40040802257E+03  0.10566000000E+00 0. -1.
        994    1    1    2    0    0 -0.18480418295E+03 -0.26153941860E+02  0.16512355722E+03  0.30234391652E+03  0.17120000000E+03 0.  0.
        998    1    1    2    0    0  0.46802367281E+02  0.84538187441E+02  0.96356342810E+03  0.96844806091E+03  0.10000000000E+02 0.  1.
</event>
<event>
 5    1  0.9130022E-009  0.3802956E+03  0.7957747E-01  0.3449872E+00
         13   -1    0    0    0    0  0.00000000000E+00  0.00000000000E+00  0.14999999963E+04  0.15000000000E+04  0.10566000000E+00 0. -1.
        994   -1    0    0    0    0 -0.00000000000E+00 -0.00000000000E+00  0.11368683772E-12  0.17120000000E+03  0.17120000000E+03 0.  0.
         13    1    1    2    0    0 -0.12908761560E+03 -0.69837371485E+02  0.81405944652E+03  0.82718417815E+03  0.10566000000E+00 0. -1.
        994    1    1    2    0    0  0.14541723909E+03  0.70332137081E+02  0.96703728284E+02  0.25446774647E+03  0.17120000000E+03 0.  0.
        998    1    1    2    0    0 -0.16329623485E+02 -0.49476559645E+00  0.58923682148E+03  0.58954807538E+03  0.10000000000E+02 0.  1.
</event>
<event>
 5    1  0.9130022E-009  0.3848164E+03  0.7957747E-01  0.3430451E+00
         13   -1    0    0    0    0  0.00000000000E+00  0.00000000000E+00  0.14999999963E+04  0.15000000000E+04  0.10566000000E+00 0. -1.
        994   -1    0    0    0    0 -0.00000000000E+00 -0.00000000000E+00  0.11368683772E-12  0.17120000000E+03  0.17120000000E+03 0.  0.
         13    1    1    2    0    0  0.14008707881E+02  0.36661363782E+01  0.62098306958E+02  0.63764373623E+02  0.10566000000E+00 0. -1.
        994    1    1    2    0    0 -0.10618643388E+02  0.15112153061E+02  0.28446729567E+01  0.17221691242E+03  0.17120000000E+03 0.  0.
        998    1    1    2    0    0 -0.33900644932E+01 -0.18778289439E+02  0.14350570164E+04  0.14352187140E+04  0.10000000000E+02 0. -1.
</event>
<event>
 5    1  0.9130022E-009  0.3829130E+03  0.7957747E-01  0.3438572E+00
         13   -1    0    0    0    0  0.00000000000E+00  0.00000000000E+00  0.14999999963E+04  0.15000000000E+04  0.10566000000E+00 0. -1.
        994   -1    0    0    0    0 -0.00000000000E+00 -0.00000000000E+00  0.11368683772E-12  0.17120000000E+03  0.17120000000E+03 0.  0.
         13    1    1    2    0    0 -0.19269733711E+02 -0.49291062631E+02  0.30740148971E+03  0.31192405892E+03  0.10566000000E+00 0. -1.
        994    1    1    2    0    0  0.15093882027E+02  0.81599493222E+02  0.25815344090E+02  0.19199524619E+03  0.17120000000E+03 0.  0.
        998    1    1    2    0    0  0.41758516840E+01 -0.32308430591E+02  0.11667831625E+04  0.11672806949E+04  0.10000000000E+02 0. -1.
</event>
<event>
 5    1  0.9130022E-009  0.3852809E+03  0.7957747E-01  0.3428482E+00
         13   -1    0    0    0    0  0.00000000000E+00  0.00000000000E+00  0.14999999963E+04  0.15000000000E+04  0.10566000000E+00 0. -1.
        994   -1    0    0    0    0 -0.00000000000E+00 -0.00000000000E+00  0.11368683772E-12  0.17120000000E+03  0.17120000000E+03 0.  0.
         13    1    1    2    0    0  0.14063393399E+02 -0.30891016354E+01  0.64406011289E+02  0.65995962278E+02  0.10566000000E+00 0. -1.
        994    1    1    2    0    0 -0.17494687819E+02  0.24020282895E+02  0.43975080695E+01  0.17381546585E+03  0.17120000000E+03 0.  0.
        998    1    1    2    0    0  0.34312944195E+01 -0.20931181259E+02  0.14311964769E+04  0.14313885719E+04  0.10000000000E+02 0. -1.
</event>
<event>
 5    1  0.9130022E-009  0.3805908E+03  0.7957747E-01  0.3448590E+00
         13   -1    0    0    0    0  0.00000000000E+00  0.00000000000E+00  0.14999999963E+04  0.15000000000E+04  0.10566000000E+00 0. -1.
        994   -1    0    0    0    0 -0.00000000000E+00 -0.00000000000E+00  0.11368683772E-12  0.17120000000E+03  0.17120000000E+03 0.  0.
         13    1    1    2    0    0 -0.20122146275E+01  0.19492423450E+02  0.48761097994E+02  0.52551493045E+02  0.10566000000E+00 0. -1.
        994    1    1    2    0    0  0.17626828712E+01 -0.12135507643E+02  0.43370844516E+01  0.17169341251E+03  0.17120000000E+03 0.  0.
        998    1    1    2    0    0  0.24953175627E+00 -0.73569158069E+01  0.14469018138E+04  0.14469550944E+04  0.10000000000E+02 0. -1.
</event>
<event>
 5    1  0.9130022E-009  0.3851208E+03  0.7957747E-01  0.3429160E+00
         13   -1    0    0    0    0  0.00000000000E+00  0.00000000000E+00  0.14999999963E+04  0.15000000000E+04  0.10566000000E+00 0.  1.
        994   -1    0    0    0    0 -0.00000000000E+00 -0.00000000000E+00  0.11368683772E-12  0.17120000000E+03  0.17120000000E+03 0.  0.
         13    1    1    2    0    0 -0.14809732534E+02  0.95331414245E+01  0.96310125875E+02  0.97907407653E+02  0.10566000000E+00 0.  1.
        994    1    1    2    0    0  0.88983944354E+01 -0.13498134640E+02  0.24298892789E+01  0.17197885168E+03  0.17120000000E+03 0.  0.
        998    1    1    2    0    0  0.59113380990E+01  0.39649932156E+01  0.14012599811E+04  0.14013137407E+04  0.10000000000E+02 0.  1.
</event>
<event>
 5    1  0.9130022E-009  0.3761379E+03  0.7957747E-01  0.3468149E+00
         13   -1    0    0    0    0  0.00000000000E+00  0.00000000000E+00  0.14999999963E+04  0.15000000000E+04  0.10566000000E+00 0. -1.
        994   -1    0    0    0    0 -0.00000000000E+00 -0.00000000000E+00  0.11368683772E-12  0.17120000000E+03  0.17120000000E+03 0.  0.
         13    1    1    2    0    0  0.87936382439E+02 -0.16857056965E+03  0.73908162285E+03  0.76314513738E+03  0.10566000000E+00 0. -1.
        994    1    1    2    0    0 -0.12028171451E+03  0.18533738915E+03  0.19484524674E+03  0.34072239263E+03  0.17120000000E+03 0.  0.
        998    1    1    2    0    0  0.32345332074E+02 -0.16766819501E+02  0.56607312669E+03  0.56733246999E+03  0.10000000000E+02 0. -1.
</event>
<event>
 5    1  0.9130022E-009  0.3842047E+03  0.7957747E-01  0.3433052E+00
         13   -1    0    0    0    0  0.00000000000E+00  0.00000000000E+00  0.14999999963E+04  0.15000000000E+04  0.10566000000E+00 0. -1.
        994   -1    0    0    0    0 -0.00000000000E+00 -0.00000000000E+00  0.11368683772E-12  0.17120000000E+03  0.17120000000E+03 0.  0.
         13    1    1    2    0    0 -0.30055816274E+02 -0.72508193927E+02  0.18538810045E+03  0.20131952024E+03  0.10566000000E+00 0. -1.
        994    1    1    2    0    0 -0.39223049281E+01  0.14236655100E+02  0.19459378868E+02  0.17293401704E+03  0.17120000000E+03 0.  0.
        998    1    1    2    0    0  0.33978121202E+02  0.58271538827E+02  0.12951525170E+04  0.12969464627E+04  0.10000000000E+02 0. -1.
</event>
<event>
 5    1  0.9130022E-009  0.3721489E+03  0.7957747E-01  0.3486073E+00
         13   -1    0    0    0    0  0.00000000000E+00  0.00000000000E+00  0.14999999963E+04  0.15000000000E+04  0.10566000000E+00 0. -1.
        994   -1    0    0    0    0 -0.00000000000E+00 -0.00000000000E+00  0.11368683772E-12  0.17120000000E+03  0.17120000000E+03 0.  0.
         13    1    1    2    0    0 -0.29889074318E+02 -0.43843398890E+02  0.16994657532E+03  0.17803777694E+03  0.10566000000E+00 0. -1.
        994    1    1    2    0    0  0.10984422327E+02  0.30673949577E+02  0.11802374971E+02  0.17467193470E+03  0.17120000000E+03 0.  0.
        998    1    1    2    0    0  0.18904651991E+02  0.13169449313E+02  0.13182510460E+04  0.13184902884E+04  0.10000000000E+02 0. -1.
</event>
<event>
 5    1  0.9130022E-009  0.3838651E+03  0.7957747E-01  0.3434500E+00
         13   -1    0    0    0    0  0.00000000000E+00  0.00000000000E+00  0.14999999963E+04  0.15000000000E+04  0.10566000000E+00 0. -1.
        994   -1    0    0    0    0 -0.00000000000E+00 -0.00000000000E+00  0.11368683772E-12  0.17120000000E+03  0.17120000000E+03 0.  0.
         13    1    1    2    0    0  0.10109115615E+02 -0.49956514104E+01  0.28321769649E+02  0.30484168868E+02  0.10566000000E+00 0. -1.
        994    1    1    2    0    0 -0.57008724210E+01  0.58865222805E+01  0.24163474270E+01  0.17141303867E+03  0.17120000000E+03 0.  0.
        998    1    1    2    0    0 -0.44082431935E+01 -0.89087087007E+00  0.14692618792E+04  0.14693027925E+04  0.10000000000E+02 0. -1.
</event>
<event>
 5    1  0.9130022E-009  0.3748731E+03  0.7957747E-01  0.3473791E+00
         13   -1    0    0    0    0  0.00000000000E+00  0.00000000000E+00  0.14999999963E+04  0.15000000000E+04  0.10566000000E+00 0. -1.
        994   -1    0    0    0    0 -0.00000000000E+00 -0.00000000000E+00  0.11368683772E-12  0.17120000000E+03  0.17120000000E+03 0.  0.
         13    1    1    2    0    0 -0.12438124103E+03 -0.10690727923E+03  0.87299101759E+03  0.88826414283E+03  0.10566000000E+00 0. -1.
        994    1    1    2    0    0  0.11524208909E+03  0.10326755447E+03  0.93097814289E+02  0.24884045075E+03  0.17120000000E+03 0.  0.
        998    1    1    2    0    0  0.91391519466E+01  0.36397247607E+01  0.53391116440E+03  0.53409540643E+03  0.10000000000E+02 0. -1.
</event>
<event>
 5    1  0.9130022E-009  0.3845017E+03  0.7957747E-01  0.3431788E+00
         13   -1    0    0    0    0  0.00000000000E+00  0.00000000000E+00  0.14999999963E+04  0.15000000000E+04  0.10566000000E+00 0. -1.
        994   -1    0    0    0    0 -0.00000000000E+00 -0.00000000000E+00  0.11368683772E-12  0.17120000000E+03  0.17120000000E+03 0.  0.
         13    1    1    2    0    0 -0.11291015529E+02  0.11629061463E+01  0.34422251240E+02  0.36245578032E+02  0.10566000000E+00 0. -1.
        994    1    1    2    0    0  0.62954689596E+01  0.16564882844E+02  0.29128034630E+01  0.17213934093E+03  0.17120000000E+03 0.  0.
        998    1    1    2    0    0  0.49955465695E+01 -0.17727788990E+02  0.14626649416E+04  0.14628150810E+04  0.10000000000E+02 0. -1.
</event>
<event>
 5    1  0.9130022E-009  0.3739440E+03  0.7957747E-01  0.3477959E+00
         13   -1    0    0    0    0  0.00000000000E+00  0.00000000000E+00  0.14999999963E+04  0.15000000000E+04  0.10566000000E+00 0. -1.
        994   -1    0    0    0    0 -0.00000000000E+00 -0.00000000000E+00  0.11368683772E-12  0.17120000000E+03  0.17120000000E+03 0.  0.
         13    1    1    2    0    0  0.75411742218E+02 -0.14607045465E+03  0.79257572303E+03  0.80944412808E+03  0.10566000000E+00 0. -1.
        994    1    1    2    0    0 -0.76007697006E+02  0.14388268703E+03  0.10372317770E+03  0.25796770190E+03  0.17120000000E+03 0.  0.
        998    1    1    2    0    0  0.59595478865E+00  0.21877676205E+01  0.60370109554E+03  0.60378817002E+03  0.10000000000E+02 0.  0.
</event>
<event>
 5    1  0.9130022E-009  0.3830726E+03  0.7957747E-01  0.3437888E+00
         13   -1    0    0    0    0  0.00000000000E+00  0.00000000000E+00  0.14999999963E+04  0.15000000000E+04  0.10566000000E+00 0. -1.
        994   -1    0    0    0    0 -0.00000000000E+00 -0.00000000000E+00  0.11368683772E-12  0.17120000000E+03  0.17120000000E+03 0.  0.
         13    1    1    2    0    0  0.24591883960E+02  0.24199926480E+01  0.14205467336E+03  0.14418792774E+03  0.10566000000E+00 0. -1.
        994    1    1    2    0    0  0.95749266795E+01 -0.79367059677E+00  0.28956231318E+01  0.17149383011E+03  0.17120000000E+03 0.  0.
        998    1    1    2    0    0 -0.34166810640E+02 -0.16263220513E+01  0.13550496998E+04  0.13555182421E+04  0.10000000000E+02 0. -1.
</event>
<event>
 5    1  0.9130022E-009  0.3696082E+03  0.7957747E-01  0.3497693E+00
         13   -1    0    0    0    0  0.00000000000E+00  0.00000000000E+00  0.14999999963E+04  0.15000000000E+04  0.10566000000E+00 0.  1.
        994   -1    0    0    0    0 -0.00000000000E+00 -0.00000000000E+00  0.11368683772E-12  0.17120000000E+03  0.17120000000E+03 0.  0.
         13    1    1    2    0    0  0.12122374672E+02 -0.62664164343E+02  0.23124359784E+03  0.23989031278E+03  0.10566000000E+00 0.  1.
        994    1    1    2    0    0  0.29951941949E+02  0.47764612787E+01  0.13950199393E+02  0.17442471577E+03  0.17120000000E+03 0.  0.
        998    1    1    2    0    0 -0.42074316621E+02  0.57887703065E+02  0.12548061990E+04  0.12568849714E+04  0.10000000000E+02 0.  1.
</event>
<event>
 5    1  0.9130022E-009  0.3857455E+03  0.7957747E-01  0.3426516E+00
         13   -1    0    0    0    0  0.00000000000E+00  0.00000000000E+00  0.14999999963E+04  0.15000000000E+04  0.10566000000E+00 0. -1.
        994   -1    0    0    0    0 -0.00000000000E+00 -0.00000000000E+00  0.11368683772E-12  0.17120000000E+03  0.17120000000E+03 0.  0.
         13    1    1    2    0    0 -0.47358087038E+01 -0.99990438947E+01  0.52451435672E+02  0.53605718267E+02  0.10566000000E+00 0. -1.
        994    1    1    2    0    0 -0.76724765380E+01  0.15384164396E+00  0.14536707759E+01  0.17137807247E+03  0.17120000000E+03 0.  0.
        998    1    1    2    0    0  0.12408285242E+02  0.98452022507E+01  0.14460948898E+04  0.14462162093E+04  0.10000000000E+02 0. -1.
</event>
<event>
 5    1  0.9130022E-009  0.3813462E+03  0.7957747E-01  0.3445318E+00
         13   -1    0    0    0    0  0.00000000000E+00  0.00000000000E+00  0.14999999963E+04  0.15000000000E+04  0.10566000000E+00 0.  1.
        994   -1    0    0    0    0 -0.00000000000E+00 -0.00000000000E+00  0.11368683772E-12  0.17120000000E+03  0.17120000000E+03 0.  0.
         13    1    1    2    0    0  0.32859901452E+02  0.15055509616E+02  0.31058036813E+02  0.47655580029E+02  0.10566000000E+00 0.  1.
        994    1    1    2    0    0 -0.42344833311E+02  0.15084100635E+02  0.24463163708E+02  0.17868548172E+03  0.17120000000E+03 0.  0.
        998    1    1    2    0    0  0.94849318592E+01 -0.30139610251E+02  0.14444787958E+04  0.14448589382E+04  0.10000000000E+02 0.  1.
</event>
<event>
 5    1  0.9130022E-009  0.3748663E+03  0.7957747E-01  0.3473821E+00
         13   -1    0    0    0    0  0.00000000000E+00  0.00000000000E+00  0.14999999963E+04  0.15000000000E+04  0.10566000000E+00 0.  1.
        994   -1    0    0    0    0 -0.00000000000E+00 -0.00000000000E+00  0.11368683772E-12  0.17120000000E+03  0.17120000000E+03 0.  0.
         13    1    1    2    0    0 -0.46086960530E+01 -0.29439685354E+02  0.65584656898E+02  0.72036751297E+02  0.10566000000E+00 0.  1.
        994    1    1    2    0    0 -0.94247240479E+01  0.10399959920E+02  0.74175530229E+01  0.17193441971E+03  0.17120000000E+03 0.  0.
        998    1    1    2    0    0  0.14033420101E+02  0.19039725434E+02  0.14269977864E+04  0.14272288290E+04  0.10000000000E+02 0.  1.
</event>
<event>
 5    1  0.9130022E-009  0.3762106E+03  0.7957747E-01  0.3467826E+00
         13   -1    0    0    0    0  0.00000000000E+00  0.00000000000E+00  0.14999999963E+04  0.15000000000E+04  0.10566000000E+00 0. -1.
        994   -1    0    0    0    0 -0.00000000000E+00 -0.00000000000E+00  0.11368683772E-12  0.17120000000E+03  0.17120000000E+03 0.  0.
         13    1    1    2    0    0 -0.15222821515E+02 -0.14800784788E+02  0.29691454449E+02  0.36501933600E+02  0.10566000000E+00 0. -1.
        994    1    1    2    0    0  0.23809231622E+02  0.74720351719E+02  0.27170982866E+02  0.19025696513E+03  0.17120000000E+03 0.  0.
        998    1    1    2    0    0 -0.85864101069E+01 -0.59919566931E+02  0.14431375590E+04  0.14444411013E+04  0.10000000000E+02 0. -1.
</event>
<event>
 5    1  0.9130022E-009  0.3819922E+03  0.7957747E-01  0.3442530E+00
         13   -1    0    0    0    0  0.00000000000E+00  0.00000000000E+00  0.14999999963E+04  0.15000000000E+04  0.10566000000E+00 0. -1.
        994   -1    0    0    0    0 -0.00000000000E+00 -0.00000000000E+00  0.11368683772E-12  0.17120000000E+03  0.17120000000E+03 0.  0.
         13    1    1    2    0    0 -0.16516380672E+02 -0.59625660738E+01  0.48630825555E+02  0.51704075109E+02  0.10566000000E+00 0. -1.
        994    1    1    2    0    0  0.81601991274E+01  0.47068805878E+01  0.34256355277E+01  0.17149320264E+03  0.17120000000E+03 0.  0.
        998    1    1    2    0    0  0.83561815443E+01  0.12556854859E+01  0.14479435352E+04  0.14480027222E+04  0.10000000000E+02 0. -1.
</event>
<event>
 5    1  0.9130022E-009  0.3767074E+03  0.7957747E-01  0.3465622E+00
         13   -1    0    0    0    0  0.00000000000E+00  0.00000000000E+00  0.14999999963E+04  0.15000000000E+04  0.10566000000E+00 0.  1.
        994   -1    0    0    0    0 -0.00000000000E+00 -0.00000000000E+00  0.11368683772E-12  0.17120000000E+03  0.17120000000E+03 0.  0.
         13    1    1    2    0    0 -0.48843069662E+02  0.30041137752E+01  0.18981120439E+03  0.19601779162E+03  0.10566000000E+00 0.  1.
        994    1    1    2    0    0  0.41568667770E+02  0.13476987882E+02  0.12285803631E+02  0.17711568060E+03  0.17120000000E+03 0.  0.
        998    1    1    2    0    0  0.72744018913E+01 -0.16481101657E+02  0.12979029883E+04  0.12980665278E+04  0.10000000000E+02 0.  1.
</event>
<event>
 5    1  0.9130022E-009  0.3750422E+03  0.7957747E-01  0.3473034E+00
         13   -1    0    0    0    0  0.00000000000E+00  0.00000000000E+00  0.14999999963E+04  0.15000000000E+04  0.10566000000E+00 0. -1.
        994   -1    0    0    0    0 -0.00000000000E+00 -0.00000000000E+00  0.11368683772E-12  0.17120000000E+03  0.17120000000E+03 0.  0.
         13    1    1    2    0    0 -0.36316213725E+02 -0.97330897227E+00  0.41374892917E+02  0.55060944758E+02  0.10566000000E+00 0. -1.
        994    1    1    2    0    0  0.41572408996E+02  0.10692187369E+02  0.20216676397E+02  0.17765343246E+03  0.17120000000E+03 0.  0.
        998    1    1    2    0    0 -0.52561952714E+01 -0.97188783968E+01  0.14384084270E+04  0.14384856228E+04  0.10000000000E+02 0. -1.
</event>
<event>
 5    1  0.9130022E-009  0.4038268E+03  0.7957747E-01  0.3353550E+00
         13   -1    0    0    0    0  0.00000000000E+00  0.00000000000E+00  0.14999999963E+04  0.15000000000E+04  0.10566000000E+00 0. -1.
        994   -1    0    0    0    0 -0.00000000000E+00 -0.00000000000E+00  0.11368683772E-12  0.17120000000E+03  0.17120000000E+03 0.  0.
         13    1    1    2    0    0  0.26362597874E+01  0.20935001458E+02 -0.58463030845E+01  0.21895537799E+02  0.10566000000E+00 0. -1.
        994    1    1    2    0    0 -0.31086016870E+01 -0.28195941594E+02  0.33292720235E+02  0.17669895231E+03  0.17120000000E+03 0.  0.
        998    1    1    2    0    0  0.47234189962E+00  0.72609401357E+01  0.14725535791E+04  0.14726055099E+04  0.10000000000E+02 0. -1.
</event>
<event>
 5    1  0.9130022E-009  0.3779976E+03  0.7957747E-01  0.3459924E+00
         13   -1    0    0    0    0  0.00000000000E+00  0.00000000000E+00  0.14999999963E+04  0.15000000000E+04  0.10566000000E+00 0.  1.
        994   -1    0    0    0    0 -0.00000000000E+00 -0.00000000000E+00  0.11368683772E-12  0.17120000000E+03  0.17120000000E+03 0.  0.
         13    1    1    2    0    0 -0.15370520401E+02 -0.39555873086E+02  0.21790374708E+03  0.22199768951E+03  0.10566000000E+00 0.  1.
        994    1    1    2    0    0 -0.40124558736E+02  0.10849404381E+02  0.10983498115E+02  0.17651562826E+03  0.17120000000E+03 0.  0.
        998    1    1    2    0    0  0.55495079137E+02  0.28706468705E+02  0.12711127511E+04  0.12726866822E+04  0.10000000000E+02 0.  1.
</event>
<event>
 5    1  0.9130022E-009  0.3793160E+03  0.7957747E-01  0.3454142E+00
         13   -1    0    0    0    0  0.00000000000E+00  0.00000000000E+00  0.14999999963E+04  0.15000000000E+04  0.10566000000E+00 0.  1.
        994   -1    0    0    0    0 -0.00000000000E+00 -0.00000000000E+00  0.11368683772E-12  0.17120000000E+03  0.17120000000E+03 0.  0.
         13    1    1    2    0    0  0.44118432672E+02  0.12233618581E+02  0.20620858624E+03  0.21122994515E+03  0.10566000000E+00 0.  1.
        994    1    1    2    0    0 -0.41357607018E+02 -0.12472460939E+02  0.10756373926E+02  0.17689305673E+03  0.17120000000E+03 0.  0.
        998    1    1    2    0    0 -0.27608256543E+01  0.23884235835E+00  0.12830350361E+04  0.12830769981E+04  0.10000000000E+02 0.  1.
</event>
<event>
 5    1  0.9130022E-009  0.3769803E+03  0.7957747E-01  0.3464413E+00
         13   -1    0    0    0    0  0.00000000000E+00  0.00000000000E+00  0.14999999963E+04  0.15000000000E+04  0.10566000000E+00 0.  1.
        994   -1    0    0    0    0 -0.00000000000E+00 -0.00000000000E+00  0.11368683772E-12  0.17120000000E+03  0.17120000000E+03 0.  0.
         13    1    1    2    0    0  0.30830234317E+02 -0.23753058810E+01  0.77917542059E+02  0.83828992304E+02  0.10566000000E+00 0.  1.
        994    1    1    2    0    0 -0.32903733353E+02  0.20324770463E+01  0.93437396869E+01  0.17459533815E+03  0.17120000000E+03 0.  0.
        998    1    1    2    0    0  0.20734990360E+01  0.34282883468E+00  0.14127387145E+04  0.14127756695E+04  0.10000000000E+02 0.  1.
</event>
<event>
 5    1  0.9130022E-009  0.3776719E+03  0.7957747E-01  0.3461359E+00
         13   -1    0    0    0    0  0.00000000000E+00  0.00000000000E+00  0.14999999963E+04  0.15000000000E+04  0.10566000000E+00 0. -1.
        994   -1    0    0    0    0 -0.00000000000E+00 -0.00000000000E+00  0.11368683772E-12  0.17120000000E+03  0.17120000000E+03 0.  0.
         13    1    1    2    0    0 -0.43776243597E+01 -0.53494224135E+02  0.25566766229E+03  0.26124080906E+03  0.10566000000E+00 0. -1.
        994    1    1    2    0    0  0.10038858788E+02  0.36933562555E+02  0.10263825532E+02  0.17572607332E+03  0.17120000000E+03 0.  0.
        998    1    1    2    0    0 -0.56612344282E+01  0.16560661580E+02  0.12340685085E+04  0.12342331176E+04  0.10000000000E+02 0. -1.
</event>
<event>
 5    1  0.9130022E-009  0.3794248E+03  0.7957747E-01  0.3453667E+00
         13   -1    0    0    0    0  0.00000000000E+00  0.00000000000E+00  0.14999999963E+04  0.15000000000E+04  0.10566000000E+00 0. -1.
        994   -1    0    0    0    0 -0.00000000000E+00 -0.00000000000E+00  0.11368683772E-12  0.17120000000E+03  0.17120000000E+03 0.  0.
         13    1    1    2    0    0 -0.11186306363E+02 -0.31740879291E+02  0.11810547538E+03  0.12280688640E+03  0.10566000000E+00 0. -1.
        994    1    1    2    0    0  0.64256047822E+01  0.32597513595E+02  0.81298843554E+01  0.17458356540E+03  0.17120000000E+03 0.  0.
        998    1    1    2    0    0  0.47607015806E+01 -0.85663430435E+00  0.13737646365E+04  0.13738095482E+04  0.10000000000E+02 0. -1.
</event>
<event>
 5    1  0.1130807E-008  0.3862209E+03  0.7957747E-01  0.3424511E+00
         13   -1    0    0    0    0  0.00000000000E+00  0.00000000000E+00  0.14999999963E+04  0.15000000000E+04  0.10566000000E+00 0. -1.
        994   -1    0    0    0    0 -0.00000000000E+00 -0.00000000000E+00  0.11368683772E-12  0.17120000000E+03  0.17120000000E+03 0.  0.
         13    1    1    2    0    0  0.11523336008E+02  0.32472243710E+01  0.71921405885E+02  0.72911120738E+02  0.10566000000E+00 0. -1.
        994    1    1    2    0    0 -0.45112562716E+01 -0.77461432016E+01  0.12884374966E+01  0.17143936024E+03  0.17120000000E+03 0.  0.
        998    1    1    2    0    0 -0.70120797361E+01  0.44989188306E+01  0.14267901529E+04  0.14268495190E+04  0.10000000000E+02 0. -1.
</event>
<event>
 5    1  0.9130022E-009  0.3811455E+03  0.7957747E-01  0.3446186E+00
         13   -1    0    0    0    0  0.00000000000E+00  0.00000000000E+00  0.14999999963E+04  0.15000000000E+04  0.10566000000E+00 0. -1.
        994   -1    0    0    0    0 -0.00000000000E+00 -0.00000000000E+00  0.11368683772E-12  0.17120000000E+03  0.17120000000E+03 0.  0.
         13    1    1    2    0    0  0.64603200623E+01 -0.10884474347E+02  0.20668097388E+02  0.24236107996E+02  0.10566000000E+00 0. -1.
        994    1    1    2    0    0 -0.11197328551E+02  0.11851341537E+02  0.44418171188E+01  0.17203198599E+03  0.17120000000E+03 0.  0.
        998    1    1    2    0    0  0.47370084884E+01 -0.96686718923E+00  0.14748900818E+04  0.14749319060E+04  0.10000000000E+02 0. -1.
</event>
<event>
 5    1  0.9130022E-009  0.3788178E+03  0.7957747E-01  0.3456322E+00
         13   -1    0    0    0    0  0.00000000000E+00  0.00000000000E+00  0.14999999963E+04  0.15000000000E+04  0.10566000000E+00 0.  1.
        994   -1    0    0    0    0 -0.00000000000E+00 -0.00000000000E+00  0.11368683772E-12  0.17120000000E+03  0.17120000000E+03 0.  0.
         13    1    1    2    0    0 -0.14717612284E+02 -0.57983798115E+01  0.24597781831E+02  0.29245364673E+02  0.10566000000E+00 0.  1.
        994    1    1    2    0    0  0.95472501270E+01  0.12713137227E+01  0.50424854098E+01  0.17154484219E+03  0.17120000000E+03 0.  0.
        998    1    1    2    0    0  0.51703621574E+01  0.45270660888E+01  0.14703597290E+04  0.14704097931E+04  0.10000000000E+02 0.  1.
</event>
<event>
 5    1  0.9130022E-009  0.3854072E+03  0.7957747E-01  0.3427947E+00
         13   -1    0    0    0    0  0.00000000000E+00  0.00000000000E+00  0.14999999963E+04  0.15000000000E+04  0.10566000000E+00 0. -1.
        994   -1    0    0    0    0 -0.00000000000E+00 -0.00000000000E+00  0.11368683772E-12  0.17120000000E+03  0.17120000000E+03 0.  0.
         13    1    1    2    0    0  0.12403237724E+02  0.28712024189E+01  0.55514144903E+02  0.56955382167E+02  0.10566000000E+00 0. -1.
        994    1    1    2    0    0 -0.11589091391E+02 -0.60266504673E+01  0.19886978517E+01  0.17170912170E+03  0.17120000000E+03 0.  0.
        998    1    1    2    0    0 -0.81414633261E+00  0.31554480484E+01  0.14424971535E+04  0.14425354961E+04  0.10000000000E+02 0. -1.
</event>
<event>
 5    1  0.9442680E-009  0.3857367E+03  0.7957747E-01  0.3426554E+00
         13   -1    0    0    0    0  0.00000000000E+00  0.00000000000E+00  0.14999999963E+04  0.15000000000E+04  0.10566000000E+00 0.  1.
        994   -1    0    0    0    0 -0.00000000000E+00 -0.00000000000E+00  0.11368683772E-12  0.17120000000E+03  0.17120000000E+03 0.  0.
         13    1    1    2    0    0 -0.82781094041E+01 -0.84630544992E+01  0.54467381425E+02  0.55739188998E+02  0.10566000000E+00 0.  1.
        994    1    1    2    0    0  0.42570368362E+01  0.12300912394E+02  0.18209243465E+01  0.17170378730E+03  0.17120000000E+03 0.  0.
        998    1    1    2    0    0  0.40210725679E+01 -0.38378578951E+01  0.14437116905E+04  0.14437570237E+04  0.10000000000E+02 0.  1.
</event>
<event>
 5    1  0.9130022E-009  0.3690791E+03  0.7957747E-01  0.3500134E+00
         13   -1    0    0    0    0  0.00000000000E+00  0.00000000000E+00  0.14999999963E+04  0.15000000000E+04  0.10566000000E+00 0. -1.
        994   -1    0    0    0    0 -0.00000000000E+00 -0.00000000000E+00  0.11368683772E-12  0.17120000000E+03  0.17120000000E+03 0.  0.
         13    1    1    2    0    0 -0.87500783601E+02  0.65811604252E+01  0.35469865438E+03  0.36539135921E+03  0.10566000000E+00 0. -1.
        994    1    1    2    0    0  0.63594525957E+02 -0.21365704271E+02  0.25529362357E+02  0.18563928839E+03  0.17120000000E+03 0.  0.
        998    1    1    2    0    0  0.23906257645E+02  0.14784543846E+02  0.11197719795E+04  0.11201693524E+04  0.10000000000E+02 0. -1.
</event>
<event>
 5    1  0.9130022E-009  0.3824387E+03  0.7957747E-01  0.3440608E+00
         13   -1    0    0    0    0  0.00000000000E+00  0.00000000000E+00  0.14999999963E+04  0.15000000000E+04  0.10566000000E+00 0.  1.
        994   -1    0    0    0    0 -0.00000000000E+00 -0.00000000000E+00  0.11368683772E-12  0.17120000000E+03  0.17120000000E+03 0.  0.
         13    1    1    2    0    0  0.91864027335E+01 -0.65260266459E+01  0.20502302220E+02  0.23395182823E+02  0.10566000000E+00 0.  1.
        994    1    1    2    0    0 -0.96799192870E+01  0.60923340728E+01  0.33410547499E+01  0.17161416031E+03  0.17120000000E+03 0.  0.
        998    1    1    2    0    0  0.49351655345E+00  0.43369257307E+00  0.14761566393E+04  0.14761906569E+04  0.10000000000E+02 0.  1.
</event>
<event>
 5    1  0.9130022E-009  0.3825123E+03  0.7957747E-01  0.3440292E+00
         13   -1    0    0    0    0  0.00000000000E+00  0.00000000000E+00  0.14999999963E+04  0.15000000000E+04  0.10566000000E+00 0. -1.
        994   -1    0    0    0    0 -0.00000000000E+00 -0.00000000000E+00  0.11368683772E-12  0.17120000000E+03  0.17120000000E+03 0.  0.
         13    1    1    2    0    0  0.17682702189E+02 -0.17750037776E+02  0.10456785734E+03  0.10752762320E+03  0.10566000000E+00 0. -1.
        994    1    1    2    0    0 -0.82027943682E+01  0.22068057456E+02  0.47101451002E+01  0.17287541891E+03  0.17120000000E+03 0.  0.
        998    1    1    2    0    0 -0.94799078211E+01 -0.43180196803E+01  0.13907219938E+04  0.13907969579E+04  0.10000000000E+02 0. -1.
</event>
<event>
 5    1  0.9130022E-009  0.3811708E+03  0.7957747E-01  0.3446076E+00
         13   -1    0    0    0    0  0.00000000000E+00  0.00000000000E+00  0.14999999963E+04  0.15000000000E+04  0.10566000000E+00 0. -1.
        994   -1    0    0    0    0 -0.00000000000E+00 -0.00000000000E+00  0.11368683772E-12  0.17120000000E+03  0.17120000000E+03 0.  0.
         13    1    1    2    0    0 -0.11744807410E+02  0.31122256912E+02  0.16169404977E+03  0.16508032066E+03  0.10566000000E+00 0. -1.
        994    1    1    2    0    0  0.30830605517E+01 -0.13328763783E+02  0.41667903880E+01  0.17179628444E+03  0.17120000000E+03 0.  0.
        998    1    1    2    0    0  0.86617468588E+01 -0.17793493129E+02  0.13341391561E+04  0.13343233949E+04  0.10000000000E+02 0. -1.
</event>
<event>
 5    1  0.9130022E-009  0.4038700E+03  0.7957747E-01  0.3353383E+00
         13   -1    0    0    0    0  0.00000000000E+00  0.00000000000E+00  0.14999999963E+04  0.15000000000E+04  0.10566000000E+00 0.  1.
        994   -1    0    0    0    0 -0.00000000000E+00 -0.00000000000E+00  0.11368683772E-12  0.17120000000E+03  0.17120000000E+03 0.  0.
         13    1    1    2    0    0 -0.57050734972E+01 -0.59562959179E+02  0.47773449916E+02  0.76567667136E+02  0.10566000000E+00 0.  1.
        994    1    1    2    0    0 -0.14389664675E+02  0.58356149961E+02  0.44624704430E+02  0.18685102872E+03  0.17120000000E+03 0.  0.
        998    1    1    2    0    0  0.20094738172E+02  0.12068092181E+01  0.14076018419E+04  0.14077813041E+04  0.10000000000E+02 0.  1.
</event>
<event>
 5    1  0.9130022E-009  0.3840344E+03  0.7957747E-01  0.3433778E+00
         13   -1    0    0    0    0  0.00000000000E+00  0.00000000000E+00  0.14999999963E+04  0.15000000000E+04  0.10566000000E+00 0. -1.
        994   -1    0    0    0    0 -0.00000000000E+00 -0.00000000000E+00  0.11368683772E-12  0.17120000000E+03  0.17120000000E+03 0.  0.
         13    1    1    2    0    0  0.44970946870E+01  0.15789701273E+02  0.63794235413E+02  0.65873015438E+02  0.10566000000E+00 0. -1.
        994    1    1    2    0    0  0.97189649441E+01 -0.13048189396E+02  0.29840466974E+01  0.17199726178E+03  0.17120000000E+03 0.  0.
        998    1    1    2    0    0 -0.14216059631E+02 -0.27415118770E+01  0.14332217142E+04  0.14333297228E+04  0.10000000000E+02 0. -1.
</event>
<event>
 5    1  0.9130022E-009  0.3823670E+03  0.7957747E-01  0.3440916E+00
         13   -1    0    0    0    0  0.00000000000E+00  0.00000000000E+00  0.14999999963E+04  0.15000000000E+04  0.10566000000E+00 0. -1.
        994   -1    0    0    0    0 -0.00000000000E+00 -0.00000000000E+00  0.11368683772E-12  0.17120000000E+03  0.17120000000E+03 0.  0.
         13    1    1    2    0    0 -0.92451849933E+01  0.95096867517E+01  0.28440342652E+02  0.31381074581E+02  0.10566000000E+00 0. -1.
        994    1    1    2    0    0  0.82080462409E+01 -0.10090017465E+02  0.35044188853E+01  0.17172915136E+03  0.17120000000E+03 0.  0.
        998    1    1    2    0    0  0.10371387524E+01  0.58033071364E+00  0.14680552347E+04  0.14680897741E+04  0.10000000000E+02 0. -1.
</event>
<event>
 5    1  0.9130022E-009  0.3806145E+03  0.7957747E-01  0.3448487E+00
         13   -1    0    0    0    0  0.00000000000E+00  0.00000000000E+00  0.14999999963E+04  0.15000000000E+04  0.10566000000E+00 0. -1.
        994   -1    0    0    0    0 -0.00000000000E+00 -0.00000000000E+00  0.11368683772E-12  0.17120000000E+03  0.17120000000E+03 0.  0.
         13    1    1    2    0    0  0.16066162200E+03  0.97838994512E+02  0.78230078044E+03  0.80459874961E+03  0.10566000000E+00 0. -1.
        994    1    1    2    0    0 -0.21448637242E+03 -0.91599421370E+02  0.21391048434E+03  0.35980827291E+03  0.17120000000E+03 0.  0.
        998    1    1    2    0    0  0.53824750414E+02 -0.62395731420E+01  0.50378873150E+03  0.50679297748E+03  0.10000000000E+02 0. -1.
</event>
<event>
 5    1  0.9130022E-009  0.3786074E+03  0.7957747E-01  0.3457245E+00
         13   -1    0    0    0    0  0.00000000000E+00  0.00000000000E+00  0.14999999963E+04  0.15000000000E+04  0.10566000000E+00 0.  1.
        994   -1    0    0    0    0 -0.00000000000E+00 -0.00000000000E+00  0.11368683772E-12  0.17120000000E+03  0.17120000000E+03 0.  0.
         13    1    1    2    0    0 -0.22902002664E+02 -0.12385278868E+02  0.65863513965E+02  0.70823092947E+02  0.10566000000E+00 0.  1.
        994    1    1    2    0    0  0.15461100609E+02  0.25304174450E+02  0.77965855186E+01  0.17392404556E+03  0.17120000000E+03 0.  0.
        998    1    1    2    0    0  0.74409020551E+01 -0.12918895582E+02  0.14263398968E+04  0.14264528615E+04  0.10000000000E+02 0.  1.
</event>
<event>
 5    1  0.9130022E-009  0.3828207E+03  0.7957747E-01  0.3438968E+00
         13   -1    0    0    0    0  0.00000000000E+00  0.00000000000E+00  0.14999999963E+04  0.15000000000E+04  0.10566000000E+00 0.  1.
        994   -1    0    0    0    0 -0.00000000000E+00 -0.00000000000E+00  0.11368683772E-12  0.17120000000E+03  0.17120000000E+03 0.  0.
         13    1    1    2    0    0  0.21724196073E+02  0.59713944273E+01  0.91160438731E+02  0.93903327950E+02  0.10566000000E+00 0.  1.
        994    1    1    2    0    0 -0.16380165838E+02 -0.37628321768E+01  0.36521172010E+01  0.17206175257E+03  0.17120000000E+03 0.  0.
        998    1    1    2    0    0 -0.53440302349E+01 -0.22085622505E+01  0.14051874403E+04  0.14052349195E+04  0.10000000000E+02 0.  1.
</event>
<event>
 5    1  0.9130022E-009  0.3794233E+03  0.7957747E-01  0.3453673E+00
         13   -1    0    0    0    0  0.00000000000E+00  0.00000000000E+00  0.14999999963E+04  0.15000000000E+04  0.10566000000E+00 0. -1.
        994   -1    0    0    0    0 -0.00000000000E+00 -0.00000000000E+00  0.11368683772E-12  0.17120000000E+03  0.17120000000E+03 0.  0.
         13    1    1    2    0    0 -0.49907916367E+02  0.70381045267E+01  0.23280007626E+03  0.23819366428E+03  0.10566000000E+00 0. -1.
        994    1    1    2    0    0  0.56238887278E+02 -0.16582301065E+01  0.15100895265E+02  0.18083981643E+03  0.17120000000E+03 0.  0.
        998    1    1    2    0    0 -0.63309709109E+01 -0.53798744202E+01  0.12520990248E+04  0.12521665193E+04  0.10000000000E+02 0. -1.
</event>
<event>
 5    1  0.9130022E-009  0.3701030E+03  0.7957747E-01  0.3495418E+00
         13   -1    0    0    0    0  0.00000000000E+00  0.00000000000E+00  0.14999999963E+04  0.15000000000E+04  0.10566000000E+00 0.  1.
        994   -1    0    0    0    0 -0.00000000000E+00 -0.00000000000E+00  0.11368683772E-12  0.17120000000E+03  0.17120000000E+03 0.  0.
         13    1    1    2    0    0 -0.87421369171E+01 -0.47976220185E+02  0.10264921386E+03  0.11364424724E+03  0.10566000000E+00 0.  1.
        994    1    1    2    0    0  0.70284920389E+01  0.34842333023E+02  0.15424581905E+02  0.17552989944E+03  0.17120000000E+03 0.  0.
        998    1    1    2    0    0  0.17136448782E+01  0.13133887162E+02  0.13819262005E+04  0.13820258533E+04  0.10000000000E+02 0.  1.
</event>
<event>
 5    1  0.9130022E-009  0.3764941E+03  0.7957747E-01  0.3466567E+00
         13   -1    0    0    0    0  0.00000000000E+00  0.00000000000E+00  0.14999999963E+04  0.15000000000E+04  0.10566000000E+00 0.  1.
        994   -1    0    0    0    0 -0.00000000000E+00 -0.00000000000E+00  0.11368683772E-12  0.17120000000E+03  0.17120000000E+03 0.  0.
         13    1    1    2    0    0 -0.24315126191E+02 -0.47350427464E+02  0.20079776256E+03  0.20773310029E+03  0.10566000000E+00 0.  1.
        994    1    1    2    0    0  0.16877332054E+02  0.56595079999E+02  0.17802393890E+02  0.18197310968E+03  0.17120000000E+03 0.  0.
        998    1    1    2    0    0  0.74377941362E+01 -0.92446525348E+01  0.12813998398E+04  0.12814937900E+04  0.10000000000E+02 0.  1.
</event>
<event>
 5    1  0.9130022E-009  0.3705944E+03  0.7957747E-01  0.3493164E+00
         13   -1    0    0    0    0  0.00000000000E+00  0.00000000000E+00  0.14999999963E+04  0.15000000000E+04  0.10566000000E+00 0.  1.
        994   -1    0    0    0    0 -0.00000000000E+00 -0.00000000000E+00  0.11368683772E-12  0.17120000000E+03  0.17120000000E+03 0.  0.
         13    1    1    2    0    0 -0.12101378612E+02  0.35118329663E+02  0.76174610551E+02  0.84748586415E+02  0.10566000000E+00 0.  1.
        994    1    1    2    0    0  0.14149359446E+01 -0.14518091240E+02  0.96932451872E+01  0.17209350952E+03  0.17120000000E+03 0.  0.
        998    1    1    2    0    0  0.10686442667E+02 -0.20600238424E+02  0.14141321405E+04  0.14143579041E+04  0.10000000000E+02 0.  1.
</event>
<event>
 5    1  0.9130022E-009  0.3815682E+03  0.7957747E-01  0.3444358E+00
         13   -1    0    0    0    0  0.00000000000E+00  0.00000000000E+00  0.14999999963E+04  0.15000000000E+04  0.10566000000E+00 0.  1.
        994   -1    0    0    0    0 -0.00000000000E+00 -0.00000000000E+00  0.11368683772E-12  0.17120000000E+03  0.17120000000E+03 0.  0.
         13    1    1    2    0    0 -0.49649213345E+01 -0.17012632049E+02  0.45941101210E+02  0.49240999558E+02  0.10566000000E+00 0.  1.
        994    1    1    2    0    0  0.64152567222E-01  0.11249755491E+02  0.37646278942E+01  0.17161052863E+03  0.17120000000E+03 0.  0.
        998    1    1    2    0    0  0.49007687673E+01  0.57628765580E+01  0.14502942672E+04  0.14503484718E+04  0.10000000000E+02 0.  1.
</event>
<event>
 5    1  0.9130022E-009  0.3693683E+03  0.7957747E-01  0.3498799E+00
         13   -1    0    0    0    0  0.00000000000E+00  0.00000000000E+00  0.14999999963E+04  0.15000000000E+04  0.10566000000E+00 0.  1.
        994   -1    0    0    0    0 -0.00000000000E+00 -0.00000000000E+00  0.11368683772E-12  0.17120000000E+03  0.17120000000E+03 0.  0.
         13    1    1    2    0    0  0.22923804334E+02 -0.74023870253E+02  0.35381051352E+03  0.36219735616E+03  0.10566000000E+00 0.  1.
        994    1    1    2    0    0  0.50954162617E+01  0.29525135158E+02  0.12716650856E+02  0.17426660633E+03  0.17120000000E+03 0.  0.
        998    1    1    2    0    0 -0.28019220596E+02  0.44498735095E+02  0.11334728319E+04  0.11347360375E+04  0.10000000000E+02 0.  1.
</event>
<event>
 5    1  0.9130022E-009  0.3808022E+03  0.7957747E-01  0.3447673E+00
         13   -1    0    0    0    0  0.00000000000E+00  0.00000000000E+00  0.14999999963E+04  0.15000000000E+04  0.10566000000E+00 0.  1.
        994   -1    0    0    0    0 -0.00000000000E+00 -0.00000000000E+00  0.11368683772E-12  0.17120000000E+03  0.17120000000E+03 0.  0.
         13    1    1    2    0    0  0.59934602291E+01 -0.10250819782E+02  0.17430880998E+02  0.21091411715E+02  0.10566000000E+00 0.  1.
        994    1    1    2    0    0 -0.42565200516E+01  0.52599885809E+01  0.38814089922E+01  0.17137762625E+03  0.17120000000E+03 0.  0.
        998    1    1    2    0    0 -0.17369401775E+01  0.49908312011E+01  0.14786877063E+04  0.14787309620E+04  0.10000000000E+02 0.  1.
</event>
<event>
 5    1  0.9130022E-009  0.3817620E+03  0.7957747E-01  0.3443522E+00
         13   -1    0    0    0    0  0.00000000000E+00  0.00000000000E+00  0.14999999963E+04  0.15000000000E+04  0.10566000000E+00 0. -1.
        994   -1    0    0    0    0 -0.00000000000E+00 -0.00000000000E+00  0.11368683772E-12  0.17120000000E+03  0.17120000000E+03 0.  0.
         13    1    1    2    0    0 -0.85433121167E+01 -0.22799412470E+02  0.86702983755E+02  0.90056759585E+02  0.10566000000E+00 0. -1.
        994    1    1    2    0    0  0.29117560698E+01  0.23113391955E+02  0.50521599539E+01  0.17285158817E+03  0.17120000000E+03 0.  0.
        998    1    1    2    0    0  0.56315560470E+01 -0.31397948467E+00  0.14082448526E+04  0.14082916522E+04  0.10000000000E+02 0. -1.
</event>
<event>
 5    1  0.9130022E-009  0.3771107E+03  0.7957747E-01  0.3463836E+00
         13   -1    0    0    0    0  0.00000000000E+00  0.00000000000E+00  0.14999999963E+04  0.15000000000E+04  0.10566000000E+00 0.  1.
        994   -1    0    0    0    0 -0.00000000000E+00 -0.00000000000E+00  0.11368683772E-12  0.17120000000E+03  0.17120000000E+03 0.  0.
         13    1    1    2    0    0  0.16996625600E+01  0.26408795430E+02  0.17958478431E+02  0.31981736046E+02  0.10566000000E+00 0.  1.
        994    1    1    2    0    0  0.42995288053E+01 -0.10145424375E+02  0.15184702010E+02  0.17222494232E+03  0.17120000000E+03 0.  0.
        998    1    1    2    0    0 -0.59991913654E+01 -0.16263371055E+02  0.14668568158E+04  0.14669933216E+04  0.10000000000E+02 0.  1.
</event>
<event>
 5    1  0.9130022E-009  0.3734322E+03  0.7957747E-01  0.3480265E+00
         13   -1    0    0    0    0  0.00000000000E+00  0.00000000000E+00  0.14999999963E+04  0.15000000000E+04  0.10566000000E+00 0. -1.
        994   -1    0    0    0    0 -0.00000000000E+00 -0.00000000000E+00  0.11368683772E-12  0.17120000000E+03  0.17120000000E+03 0.  0.
         13    1    1    2    0    0  0.23783611900E+02  0.20257822668E+02  0.67288321073E+02  0.74187390378E+02  0.10566000000E+00 0. -1.
        994    1    1    2    0    0 -0.20218602568E+02  0.26838207160E+02  0.11354192917E+02  0.17483546251E+03  0.17120000000E+03 0.  0.
        998    1    1    2    0    0 -0.35650093312E+01 -0.47096029828E+02  0.14213574823E+04  0.14221771471E+04  0.10000000000E+02 0. -1.
</event>
<event>
 5    1  0.1165400E-008  0.3864106E+03  0.7957747E-01  0.3423712E+00
         13   -1    0    0    0    0  0.00000000000E+00  0.00000000000E+00  0.14999999963E+04  0.15000000000E+04  0.10566000000E+00 0.  1.
        994   -1    0    0    0    0 -0.00000000000E+00 -0.00000000000E+00  0.11368683772E-12  0.17120000000E+03  0.17120000000E+03 0.  0.
         13    1    1    2    0    0 -0.73884963817E+01  0.68517722027E+01  0.58414167531E+02  0.59277000544E+02  0.10566000000E+00 0.  1.
        994    1    1    2    0    0 -0.60396612350E+01 -0.75672278531E+01  0.12383394878E+01  0.17147802754E+03  0.17120000000E+03 0.  0.
        998    1    1    2    0    0  0.13428157617E+02  0.71545565038E+00  0.14403474893E+04  0.14404449719E+04  0.10000000000E+02 0.  1.
</event>
<event>
 5    1  0.9130022E-009  0.3834586E+03  0.7957747E-01  0.3436236E+00
         13   -1    0    0    0    0  0.00000000000E+00  0.00000000000E+00  0.14999999963E+04  0.15000000000E+04  0.10566000000E+00 0. -1.
        994   -1    0    0    0    0 -0.00000000000E+00 -0.00000000000E+00  0.11368683772E-12  0.17120000000E+03  0.17120000000E+03 0.  0.
         13    1    1    2    0    0  0.10270019692E+02 -0.20861205529E+01  0.21790344894E+02  0.24179650495E+02  0.10566000000E+00 0. -1.
        994    1    1    2    0    0 -0.11429507622E+02  0.22952833655E+00  0.28293945672E+01  0.17160457978E+03  0.17120000000E+03 0.  0.
        998    1    1    2    0    0  0.11594879299E+01  0.18565922163E+01  0.14753802568E+04  0.14754157697E+04  0.10000000000E+02 0. -1.
</event>
<event>
 5    1  0.9130022E-009  0.3724404E+03  0.7957747E-01  0.3484750E+00
         13   -1    0    0    0    0  0.00000000000E+00  0.00000000000E+00  0.14999999963E+04  0.15000000000E+04  0.10566000000E+00 0.  1.
        994   -1    0    0    0    0 -0.00000000000E+00 -0.00000000000E+00  0.11368683772E-12  0.17120000000E+03  0.17120000000E+03 0.  0.
         13    1    1    2    0    0 -0.20395526726E+02 -0.51200560440E+02  0.13746049916E+03  0.14809751819E+03  0.10566000000E+00 0.  1.
        994    1    1    2    0    0  0.11778920091E+02  0.10401366578E+03  0.46559639311E+02  0.20599714959E+03  0.17120000000E+03 0.  0.
        998    1    1    2    0    0  0.86166066356E+01 -0.52813105341E+02  0.13159798578E+04  0.13171053322E+04  0.10000000000E+02 0.  1.
</event>
<event>
 5    1  0.1087796E-008  0.3859682E+03  0.7957747E-01  0.3425576E+00
         13   -1    0    0    0    0  0.00000000000E+00  0.00000000000E+00  0.14999999963E+04  0.15000000000E+04  0.10566000000E+00 0. -1.
        994   -1    0    0    0    0 -0.00000000000E+00 -0.00000000000E+00  0.11368683772E-12  0.17120000000E+03  0.17120000000E+03 0.  0.
         13    1    1    2    0    0  0.24416280020E+01  0.11878776543E+02  0.64950455877E+02  0.66072988143E+02  0.10566000000E+00 0. -1.
        994    1    1    2    0    0 -0.28885879371E+01 -0.70194858912E+01  0.13391307600E+01  0.17137342383E+03  0.17120000000E+03 0.  0.
        998    1    1    2    0    0  0.44695993514E+00 -0.48592906522E+01  0.14337104096E+04  0.14337535880E+04  0.10000000000E+02 0. -1.
</event>
<event>
 5    1  0.9130022E-009  0.3708149E+03  0.7957747E-01  0.3492154E+00
         13   -1    0    0    0    0  0.00000000000E+00  0.00000000000E+00  0.14999999963E+04  0.15000000000E+04  0.10566000000E+00 0.  1.
        994   -1    0    0    0    0 -0.00000000000E+00 -0.00000000000E+00  0.11368683772E-12  0.17120000000E+03  0.17120000000E+03 0.  0.
         13    1    1    2    0    0  0.21846069790E+02  0.14845717086E+02  0.34888155724E+02  0.43758892296E+02  0.10566000000E+00 0.  1.
        994    1    1    2    0    0 -0.22004536817E+02 -0.18667506498E+02  0.11720160916E+02  0.17400999285E+03  0.17120000000E+03 0.  0.
        998    1    1    2    0    0  0.15846702625E+00  0.38217894119E+01  0.14533916796E+04  0.14534311149E+04  0.10000000000E+02 0.  1.
</event>
<event>
 5    1  0.9130022E-009  0.3854558E+03  0.7957747E-01  0.3427741E+00
         13   -1    0    0    0    0  0.00000000000E+00  0.00000000000E+00  0.14999999963E+04  0.15000000000E+04  0.10566000000E+00 0. -1.
        994   -1    0    0    0    0 -0.00000000000E+00 -0.00000000000E+00  0.11368683772E-12  0.17120000000E+03  0.17120000000E+03 0.  0.
         13    1    1    2    0    0 -0.13327661851E+02 -0.19177917800E+01  0.66018064309E+02  0.67377299404E+02  0.10566000000E+00 0. -1.
        994    1    1    2    0    0  0.54978056871E+01  0.67085159718E+01  0.16510751974E+01  0.17142752435E+03  0.17120000000E+03 0.  0.
        998    1    1    2    0    0  0.78298561642E+01 -0.47907241919E+01  0.14323308568E+04  0.14323951763E+04  0.10000000000E+02 0. -1.
</event>
<event>
 5    1  0.9130022E-009  0.3833387E+03  0.7957747E-01  0.3436749E+00
         13   -1    0    0    0    0  0.00000000000E+00  0.00000000000E+00  0.14999999963E+04  0.15000000000E+04  0.10566000000E+00 0.  1.
        994   -1    0    0    0    0 -0.00000000000E+00 -0.00000000000E+00  0.11368683772E-12  0.17120000000E+03  0.17120000000E+03 0.  0.
         13    1    1    2    0    0 -0.22879143444E+02  0.11215213143E+02  0.12539078921E+03  0.12795349699E+03  0.10566000000E+00 0.  1.
        994    1    1    2    0    0  0.19278740629E+02 -0.10646544422E+02  0.40625480120E+01  0.17265851570E+03  0.17120000000E+03 0.  0.
        998    1    1    2    0    0  0.36004028153E+01 -0.56866872096E+00  0.13705466591E+04  0.13705879873E+04  0.10000000000E+02 0.  0.
</event>
<event>
 5    1  0.9130022E-009  0.3848702E+03  0.7957747E-01  0.3430223E+00
         13   -1    0    0    0    0  0.00000000000E+00  0.00000000000E+00  0.14999999963E+04  0.15000000000E+04  0.10566000000E+00 0.  1.
        994   -1    0    0    0    0 -0.00000000000E+00 -0.00000000000E+00  0.11368683772E-12  0.17120000000E+03  0.17120000000E+03 0.  0.
         13    1    1    2    0    0 -0.82486849471E+00  0.12202282044E+02  0.43653811682E+02  0.45334782823E+02  0.10566000000E+00 0.  1.
        994    1    1    2    0    0 -0.39699347324E+01 -0.99646496315E+01  0.20731968807E+01  0.17154822287E+03  0.17120000000E+03 0.  0.
        998    1    1    2    0    0  0.47948032271E+01 -0.22376324128E+01  0.14542729877E+04  0.14543169943E+04  0.10000000000E+02 0.  1.
</event>
<event>
 5    1  0.9130022E-009  0.3745070E+03  0.7957747E-01  0.3475430E+00
         13   -1    0    0    0    0  0.00000000000E+00  0.00000000000E+00  0.14999999963E+04  0.15000000000E+04  0.10566000000E+00 0.  1.
        994   -1    0    0    0    0 -0.00000000000E+00 -0.00000000000E+00  0.11368683772E-12  0.17120000000E+03  0.17120000000E+03 0.  0.
         13    1    1    2    0    0  0.22900774949E+02 -0.12381493422E+01  0.13219615814E+02  0.26471643571E+02  0.10566000000E+00 0.  1.
        994    1    1    2    0    0 -0.38679205835E+02  0.22377434448E+01  0.18693042859E+02  0.17652183522E+03  0.17120000000E+03 0.  0.
        998    1    1    2    0    0  0.15778430886E+02 -0.99959410256E+00  0.14680873376E+04  0.14682065212E+04  0.10000000000E+02 0.  1.
</event>
<event>
 5    1  0.9130022E-009  0.3723637E+03  0.7957747E-01  0.3485098E+00
         13   -1    0    0    0    0  0.00000000000E+00  0.00000000000E+00  0.14999999963E+04  0.15000000000E+04  0.10566000000E+00 0.  1.
        994   -1    0    0    0    0 -0.00000000000E+00 -0.00000000000E+00  0.11368683772E-12  0.17120000000E+03  0.17120000000E+03 0.  0.
         13    1    1    2    0    0  0.63883123369E+02 -0.66666933389E+02  0.52435540403E+03  0.53242289053E+03  0.10566000000E+00 0.  1.
        994    1    1    2    0    0 -0.15499586666E+02 -0.30203495043E+01  0.13073650587E+02  0.17242308441E+03  0.17120000000E+03 0.  0.
        998    1    1    2    0    0 -0.48383536704E+02  0.69687282893E+02  0.96257094166E+03  0.96635402506E+03  0.10000000000E+02 0.  1.
</event>
<event>
 5    1  0.9130022E-009  0.3707498E+03  0.7957747E-01  0.3492452E+00
         13   -1    0    0    0    0  0.00000000000E+00  0.00000000000E+00  0.14999999963E+04  0.15000000000E+04  0.10566000000E+00 0.  1.
        994   -1    0    0    0    0 -0.00000000000E+00 -0.00000000000E+00  0.11368683772E-12  0.17120000000E+03  0.17120000000E+03 0.  0.
         13    1    1    2    0    0  0.62513639060E+02  0.45784562805E+02  0.22690897301E+03  0.23977463263E+03  0.10566000000E+00 0.  1.
        994    1    1    2    0    0 -0.67852080454E+02 -0.31550261568E+02  0.31229869634E+02  0.18943090715E+03  0.17120000000E+03 0.  0.
        998    1    1    2    0    0  0.53384413935E+01 -0.14234301237E+02  0.12418611536E+04  0.12419944602E+04  0.10000000000E+02 0.  1.
</event>
<event>
 5    1  0.9130022E-009  0.3735074E+03  0.7957747E-01  0.3479925E+00
         13   -1    0    0    0    0  0.00000000000E+00  0.00000000000E+00  0.14999999963E+04  0.15000000000E+04  0.10566000000E+00 0. -1.
        994   -1    0    0    0    0 -0.00000000000E+00 -0.00000000000E+00  0.11368683772E-12  0.17120000000E+03  0.17120000000E+03 0.  0.
         13    1    1    2    0    0  0.11655866660E+02 -0.67330833750E+01  0.11531624602E+01  0.13510536149E+02  0.10566000000E+00 0. -1.
        994    1    1    2    0    0 -0.12588492905E+02  0.46698191405E+01  0.13443897695E+02  0.17225114150E+03  0.17120000000E+03 0.  0.
        998    1    1    2    0    0  0.93262624475E+00  0.20632642345E+01  0.14854029361E+04  0.14854383223E+04  0.10000000000E+02 0. -1.
</event>
<event>
 5    1  0.9130022E-009  0.3838884E+03  0.7957747E-01  0.3434400E+00
         13   -1    0    0    0    0  0.00000000000E+00  0.00000000000E+00  0.14999999963E+04  0.15000000000E+04  0.10566000000E+00 0.  1.
        994   -1    0    0    0    0 -0.00000000000E+00 -0.00000000000E+00  0.11368683772E-12  0.17120000000E+03  0.17120000000E+03 0.  0.
         13    1    1    2    0    0 -0.51112802724E+01 -0.17664305829E+03  0.98624501071E+03  0.10019521583E+04  0.10566000000E+00 0.  1.
        994    1    1    2    0    0 -0.13184599799E+02  0.19884817034E+03  0.14665165757E+03  0.30088299584E+03  0.17120000000E+03 0.  0.
        998    1    1    2    0    0  0.18295880071E+02 -0.22205112053E+02  0.36710332800E+03  0.36836484585E+03  0.10000000000E+02 0. -1.
</event>
<event>
 5    1  0.9130022E-009  0.3855548E+03  0.7957747E-01  0.3427323E+00
         13   -1    0    0    0    0  0.00000000000E+00  0.00000000000E+00  0.14999999963E+04  0.15000000000E+04  0.10566000000E+00 0. -1.
        994   -1    0    0    0    0 -0.00000000000E+00 -0.00000000000E+00  0.11368683772E-12  0.17120000000E+03  0.17120000000E+03 0.  0.
         13    1    1    2    0    0  0.70690329868E+01  0.76643907996E+01  0.39444103543E+02  0.40799051239E+02  0.10566000000E+00 0. -1.
        994    1    1    2    0    0 -0.98621967480E+00 -0.13964267496E+02  0.19985371381E+01  0.17178302462E+03  0.17120000000E+03 0.  0.
        998    1    1    2    0    0 -0.60828133120E+01  0.62998766965E+01  0.14585573556E+04  0.14586179241E+04  0.10000000000E+02 0. -1.
</event>
<event>
 5    1  0.9130022E-009  0.3855454E+03  0.7957747E-01  0.3427362E+00
         13   -1    0    0    0    0  0.00000000000E+00  0.00000000000E+00  0.14999999963E+04  0.15000000000E+04  0.10566000000E+00 0.  1.
        994   -1    0    0    0    0 -0.00000000000E+00 -0.00000000000E+00  0.11368683772E-12  0.17120000000E+03  0.17120000000E+03 0.  0.
         13    1    1    2    0    0 -0.16467486644E+02 -0.14841772412E+02  0.12554604803E+03  0.12748834325E+03  0.10566000000E+00 0.  1.
        994    1    1    2    0    0  0.62320060885E+02  0.15396997959E+02  0.15006558748E+02  0.18345433857E+03  0.17120000000E+03 0.  0.
        998    1    1    2    0    0 -0.45852574241E+02 -0.55522554686E+00  0.13594473895E+04  0.13602573182E+04  0.10000000000E+02 0.  1.
</event>
<event>
 5    1  0.9130022E-009  0.3771691E+03  0.7957747E-01  0.3463578E+00
         13   -1    0    0    0    0  0.00000000000E+00  0.00000000000E+00  0.14999999963E+04  0.15000000000E+04  0.10566000000E+00 0.  1.
        994   -1    0    0    0    0 -0.00000000000E+00 -0.00000000000E+00  0.11368683772E-12  0.17120000000E+03  0.17120000000E+03 0.  0.
         13    1    1    2    0    0 -0.45900018922E+02 -0.54274420328E+02  0.17153988956E+03  0.18568378850E+03  0.10566000000E+00 0.  1.
        994    1    1    2    0    0 -0.64107393616E+01  0.53836830376E+02  0.25399061398E+02  0.18136718061E+03  0.17120000000E+03 0.  0.
        998    1    1    2    0    0  0.52310758284E+02  0.43758995168E+00  0.13030610453E+04  0.13041490309E+04  0.10000000000E+02 0.  1.
</event>
<event>
 5    1  0.9130022E-009  0.3859153E+03  0.7957747E-01  0.3425800E+00
         13   -1    0    0    0    0  0.00000000000E+00  0.00000000000E+00  0.14999999963E+04  0.15000000000E+04  0.10566000000E+00 0.  1.
        994   -1    0    0    0    0 -0.00000000000E+00 -0.00000000000E+00  0.11368683772E-12  0.17120000000E+03  0.17120000000E+03 0.  0.
         13    1    1    2    0    0  0.11846192852E+02  0.70766908399E+01  0.79502962876E+02  0.80691660712E+02  0.10566000000E+00 0.  1.
        994    1    1    2    0    0 -0.11230609652E+02 -0.55120035590E+01  0.16897320443E+01  0.17166480120E+03  0.17120000000E+03 0.  0.
        998    1    1    2    0    0 -0.61558319931E+00 -0.15646872809E+01  0.14188073014E+04  0.14188435381E+04  0.10000000000E+02 0.  0.
</event>
<event>
 5    1  0.9130022E-009  0.3738491E+03  0.7957747E-01  0.3478386E+00
         13   -1    0    0    0    0  0.00000000000E+00  0.00000000000E+00  0.14999999963E+04  0.15000000000E+04  0.10566000000E+00 0.  1.
        994   -1    0    0    0    0 -0.00000000000E+00 -0.00000000000E+00  0.11368683772E-12  0.17120000000E+03  0.17120000000E+03 0.  0.
         13    1    1    2    0    0  0.13499509536E+02  0.19102774050E+02  0.34945424104E+02  0.42051712973E+02  0.10566000000E+00 0.  1.
        994    1    1    2    0    0 -0.56715344826E+01 -0.12053674174E+02  0.78767238471E+01  0.17189805160E+03  0.17120000000E+03 0.  0.
        998    1    1    2    0    0 -0.78279750539E+01 -0.70490998755E+01  0.14571778483E+04  0.14572502354E+04  0.10000000000E+02 0.  1.
</event>
<event>
 5    1  0.9130022E-009  0.3828176E+03  0.7957747E-01  0.3438981E+00
         13   -1    0    0    0    0  0.00000000000E+00  0.00000000000E+00  0.14999999963E+04  0.15000000000E+04  0.10566000000E+00 0. -1.
        994   -1    0    0    0    0 -0.00000000000E+00 -0.00000000000E+00  0.11368683772E-12  0.17120000000E+03  0.17120000000E+03 0.  0.
         13    1    1    2    0    0 -0.55546682385E+01 -0.89469672103E+01 -0.52097351938E+01  0.11749683669E+02  0.10566000000E+00 0. -1.
        994    1    1    2    0    0 -0.49339220420E+01  0.14496636386E+02  0.18742778434E+02  0.17290236493E+03  0.17120000000E+03 0.  0.
        998    1    1    2    0    0  0.10488590281E+02 -0.55496691758E+01  0.14864669530E+04  0.14865479514E+04  0.10000000000E+02 0. -1.
</event>
<event>
 5    1  0.9130022E-009  0.2023181E+03  0.7957747E-01  0.4996995E+00
         13   -1    0    0    0    0  0.00000000000E+00  0.00000000000E+00  0.14999999963E+04  0.15000000000E+04  0.10566000000E+00 0. -1.
        994   -1    0    0    0    0 -0.00000000000E+00 -0.00000000000E+00  0.11368683772E-12  0.17120000000E+03  0.17120000000E+03 0.  0.
         13    1    1    2    0    0 -0.10454202393E+03 -0.41004991278E+02  0.69252618552E+02  0.13193324228E+03  0.10566000000E+00 0. -1.
        994    1    1    2    0    0  0.99498691331E+02  0.42289315991E+02  0.13474649215E+03  0.24321684352E+03  0.17120000000E+03 0.  0.
        998    1    1    2    0    0  0.50433326026E+01 -0.12843247129E+01  0.12960008856E+04  0.12960499142E+04  0.10000000000E+02 0. -1.
</event>
<event>
 5    1  0.9130022E-009  0.3760323E+03  0.7957747E-01  0.3468619E+00
         13   -1    0    0    0    0  0.00000000000E+00  0.00000000000E+00  0.14999999963E+04  0.15000000000E+04  0.10566000000E+00 0.  1.
        994   -1    0    0    0    0 -0.00000000000E+00 -0.00000000000E+00  0.11368683772E-12  0.17120000000E+03  0.17120000000E+03 0.  0.
         13    1    1    2    0    0 -0.11684001043E+01 -0.15651023941E+02  0.22010481636E+01  0.15848516847E+02  0.10566000000E+00 0.  1.
        994    1    1    2    0    0  0.13033762096E+01  0.16617443132E+02  0.15157595991E+02  0.17267608671E+03  0.17120000000E+03 0.  0.
        998    1    1    2    0    0 -0.13497610531E+00 -0.96641919119E+00  0.14826413521E+04  0.14826753964E+04  0.10000000000E+02 0.  1.
</event>
<event>
 5    1  0.9130022E-009  0.3826601E+03  0.7957747E-01  0.3439657E+00
         13   -1    0    0    0    0  0.00000000000E+00  0.00000000000E+00  0.14999999963E+04  0.15000000000E+04  0.10566000000E+00 0.  1.
        994   -1    0    0    0    0 -0.00000000000E+00 -0.00000000000E+00  0.11368683772E-12  0.17120000000E+03  0.17120000000E+03 0.  0.
         13    1    1    2    0    0 -0.31613387467E+02  0.23558532865E+01  0.15790071838E+03  0.16105155802E+03  0.10566000000E+00 0.  1.
        994    1    1    2    0    0  0.35486823976E+02  0.32933257495E+01  0.70168171617E+01  0.17501096078E+03  0.17120000000E+03 0.  0.
        998    1    1    2    0    0 -0.38734365082E+01 -0.56491790360E+01  0.13350824607E+04  0.13351374812E+04  0.10000000000E+02 0.  1.
</event>
<event>
 5    1  0.9130022E-009  0.3713212E+03  0.7957747E-01  0.3489841E+00
         13   -1    0    0    0    0  0.00000000000E+00  0.00000000000E+00  0.14999999963E+04  0.15000000000E+04  0.10566000000E+00 0. -1.
        994   -1    0    0    0    0 -0.00000000000E+00 -0.00000000000E+00  0.11368683772E-12  0.17120000000E+03  0.17120000000E+03 0.  0.
         13    1    1    2    0    0  0.91935888040E+01  0.82425235033E+02  0.28612079836E+03  0.29789857982E+03  0.10566000000E+00 0. -1.
        994    1    1    2    0    0  0.22046078758E+02 -0.10364741434E+03  0.48281490539E+02  0.20704916908E+03  0.17120000000E+03 0.  0.
        998    1    1    2    0    0 -0.31239667562E+02  0.21222179311E+02  0.11655977074E+04  0.11662522511E+04  0.10000000000E+02 0. -1.
</event>
<event>
 5    1  0.9130022E-009  0.3741813E+03  0.7957747E-01  0.3476892E+00
         13   -1    0    0    0    0  0.00000000000E+00  0.00000000000E+00  0.14999999963E+04  0.15000000000E+04  0.10566000000E+00 0. -1.
        994   -1    0    0    0    0 -0.00000000000E+00 -0.00000000000E+00  0.11368683772E-12  0.17120000000E+03  0.17120000000E+03 0.  0.
         13    1    1    2    0    0  0.10888938107E+02  0.16595516107E-01  0.50602913876E+01  0.12007787534E+02  0.10566000000E+00 0. -1.
        994    1    1    2    0    0 -0.91783417853E+01  0.29922025354E+01  0.74174530639E+01  0.17163232168E+03  0.17120000000E+03 0.  0.
        998    1    1    2    0    0 -0.17105963215E+01 -0.30087980515E+01  0.14875222518E+04  0.14875598908E+04  0.10000000000E+02 0. -1.
</event>
<event>
 5    1  0.1238814E-008  0.3859870E+03  0.7957747E-01  0.3425497E+00
         13   -1    0    0    0    0  0.00000000000E+00  0.00000000000E+00  0.14999999963E+04  0.15000000000E+04  0.10566000000E+00 0. -1.
        994   -1    0    0    0    0 -0.00000000000E+00 -0.00000000000E+00  0.11368683772E-12  0.17120000000E+03  0.17120000000E+03 0.  0.
         13    1    1    2    0    0 -0.73775539789E+01  0.88247353925E+01  0.56115035495E+02  0.57281869995E+02  0.10566000000E+00 0. -1.
        994    1    1    2    0    0  0.14289239348E+02 -0.65078270204E+01  0.19494950582E+01  0.17192956321E+03  0.17120000000E+03 0.  0.
        998    1    1    2    0    0 -0.69116853692E+01 -0.23169083722E+01  0.14419354657E+04  0.14419885668E+04  0.10000000000E+02 0. -1.
</event>
<event>
 5    1  0.9130022E-009  0.3861171E+03  0.7957747E-01  0.3424948E+00
         13   -1    0    0    0    0  0.00000000000E+00  0.00000000000E+00  0.14999999963E+04  0.15000000000E+04  0.10566000000E+00 0. -1.
        994   -1    0    0    0    0 -0.00000000000E+00 -0.00000000000E+00  0.11368683772E-12  0.17120000000E+03  0.17120000000E+03 0.  0.
         13    1    1    2    0    0  0.25377562015E+01 -0.12073925357E+02  0.66567407144E+02  0.67701187124E+02  0.10566000000E+00 0. -1.
        994    1    1    2    0    0 -0.14374051200E+02  0.15310005868E+02  0.25229674586E+01  0.17250163765E+03  0.17120000000E+03 0.  0.
        998    1    1    2    0    0  0.11836294999E+02 -0.32360805107E+01  0.14309096217E+04  0.14309971752E+04  0.10000000000E+02 0. -1.
</event>
<event>
 5    1  0.9130022E-009  0.3847587E+03  0.7957747E-01  0.3430696E+00
         13   -1    0    0    0    0  0.00000000000E+00  0.00000000000E+00  0.14999999963E+04  0.15000000000E+04  0.10566000000E+00 0. -1.
        994   -1    0    0    0    0 -0.00000000000E+00 -0.00000000000E+00  0.11368683772E-12  0.17120000000E+03  0.17120000000E+03 0.  0.
         13    1    1    2    0    0 -0.11884476053E+02 -0.10167265288E+02  0.64706493531E+02  0.66569929575E+02  0.10566000000E+00 0. -1.
        994    1    1    2    0    0  0.24030302657E+02  0.71210314474E+01  0.38201612686E+01  0.17306703374E+03  0.17120000000E+03 0.  0.
        998    1    1    2    0    0 -0.12145826605E+02  0.30462338406E+01  0.14314733415E+04  0.14315630367E+04  0.10000000000E+02 0. -1.
</event>
<event>
 5    1  0.9130022E-009  0.3822238E+03  0.7957747E-01  0.3441532E+00
         13   -1    0    0    0    0  0.00000000000E+00  0.00000000000E+00  0.14999999963E+04  0.15000000000E+04  0.10566000000E+00 0.  1.
        994   -1    0    0    0    0 -0.00000000000E+00 -0.00000000000E+00  0.11368683772E-12  0.17120000000E+03  0.17120000000E+03 0.  0.
         13    1    1    2    0    0 -0.36844311765E+02  0.16083430689E+02  0.42242013207E+02  0.58314482729E+02  0.10566000000E+00 0.  1.
        994    1    1    2    0    0  0.70813388024E+01  0.15904975443E+02  0.18662323471E+02  0.17309198688E+03  0.17120000000E+03 0.  0.
        998    1    1    2    0    0  0.29762972962E+02 -0.31988406132E+02  0.14390956596E+04  0.14397935304E+04  0.10000000000E+02 0.  1.
</event>
<event>
 5    1  0.9130022E-009  0.3746082E+03  0.7957747E-01  0.3474977E+00
         13   -1    0    0    0    0  0.00000000000E+00  0.00000000000E+00  0.14999999963E+04  0.15000000000E+04  0.10566000000E+00 0. -1.
        994   -1    0    0    0    0 -0.00000000000E+00 -0.00000000000E+00  0.11368683772E-12  0.17120000000E+03  0.17120000000E+03 0.  0.
         13    1    1    2    0    0  0.23546042245E+02  0.23945332510E+02  0.83518385402E+02  0.90017370094E+02  0.10566000000E+00 0. -1.
        994    1    1    2    0    0 -0.12574721726E+02  0.96760333146E+00  0.74216571364E+01  0.17182427325E+03  0.17120000000E+03 0.  0.
        998    1    1    2    0    0 -0.10971320519E+02 -0.24912935842E+02  0.14090599537E+04  0.14093583567E+04  0.10000000000E+02 0. -1.
</event>
<event>
 5    1  0.9130022E-009  0.3834101E+03  0.7957747E-01  0.3436443E+00
         13   -1    0    0    0    0  0.00000000000E+00  0.00000000000E+00  0.14999999963E+04  0.15000000000E+04  0.10566000000E+00 0. -1.
        994   -1    0    0    0    0 -0.00000000000E+00 -0.00000000000E+00  0.11368683772E-12  0.17120000000E+03  0.17120000000E+03 0.  0.
         13    1    1    2    0    0  0.27514923674E+02 -0.45303941957E+01  0.16043354862E+03  0.16283897010E+03  0.10566000000E+00 0. -1.
        994    1    1    2    0    0 -0.16509511971E+02 -0.27713683176E+00  0.33233269534E+01  0.17202652497E+03  0.17120000000E+03 0.  0.
        998    1    1    2    0    0 -0.11005411703E+02  0.48075310275E+01  0.13362431207E+04  0.13363345049E+04  0.10000000000E+02 0. -1.
</event>
<event>
 5    1  0.9130022E-009  0.3806290E+03  0.7957747E-01  0.3448424E+00
         13   -1    0    0    0    0  0.00000000000E+00  0.00000000000E+00  0.14999999963E+04  0.15000000000E+04  0.10566000000E+00 0.  1.
        994   -1    0    0    0    0 -0.00000000000E+00 -0.00000000000E+00  0.11368683772E-12  0.17120000000E+03  0.17120000000E+03 0.  0.
         13    1    1    2    0    0 -0.24653447120E+02 -0.20554415607E+02  0.14375466420E+03  0.14729457253E+03  0.10566000000E+00 0.  1.
        994    1    1    2    0    0  0.10155649600E+02  0.13953691438E+00  0.41601653691E+01  0.17155146069E+03  0.17120000000E+03 0.  0.
        998    1    1    2    0    0  0.14497797520E+02  0.20414878692E+02  0.13520851667E+04  0.13523539668E+04  0.10000000000E+02 0.  1.
</event>
<event>
 5    1  0.9130022E-009  0.3856528E+03  0.7957747E-01  0.3426908E+00
         13   -1    0    0    0    0  0.00000000000E+00  0.00000000000E+00  0.14999999963E+04  0.15000000000E+04  0.10566000000E+00 0.  1.
        994   -1    0    0    0    0 -0.00000000000E+00 -0.00000000000E+00  0.11368683772E-12  0.17120000000E+03  0.17120000000E+03 0.  0.
         13    1    1    2    0    0  0.12017914915E+02  0.50817727505E+01  0.63096721086E+02  0.64431840491E+02  0.10566000000E+00 0.  1.
        994    1    1    2    0    0 -0.13605926840E+02 -0.46410694323E+01  0.19848774660E+01  0.17181397065E+03  0.17120000000E+03 0.  0.
        998    1    1    2    0    0  0.15880119249E+01 -0.44070331814E+00  0.14349183977E+04  0.14349541889E+04  0.10000000000E+02 0.  1.
</event>
<event>
 5    1  0.9130022E-009  0.3781615E+03  0.7957747E-01  0.3459203E+00
         13   -1    0    0    0    0  0.00000000000E+00  0.00000000000E+00  0.14999999963E+04  0.15000000000E+04  0.10566000000E+00 0. -1.
        994   -1    0    0    0    0 -0.00000000000E+00 -0.00000000000E+00  0.11368683772E-12  0.17120000000E+03  0.17120000000E+03 0.  0.
         13    1    1    2    0    0  0.18254358530E+02  0.46064753515E+02  0.29693428383E+03  0.30104013552E+03  0.10566000000E+00 0. -1.
        994    1    1    2    0    0 -0.36078078495E+01 -0.33709405726E+01  0.51460773283E+01  0.17134848009E+03  0.17120000000E+03 0.  0.
        998    1    1    2    0    0 -0.14646550681E+02 -0.42693812942E+02  0.11979196351E+04  0.11988113844E+04  0.10000000000E+02 0. -1.
</event>
<event>
 5    1  0.9130022E-009  0.3834308E+03  0.7957747E-01  0.3436355E+00
         13   -1    0    0    0    0  0.00000000000E+00  0.00000000000E+00  0.14999999963E+04  0.15000000000E+04  0.10566000000E+00 0. -1.
        994   -1    0    0    0    0 -0.00000000000E+00 -0.00000000000E+00  0.11368683772E-12  0.17120000000E+03  0.17120000000E+03 0.  0.
         13    1    1    2    0    0 -0.19942879009E+02 -0.47298018412E+01  0.85131149318E+02  0.87563766461E+02  0.10566000000E+00 0. -1.
        994    1    1    2    0    0  0.15607311116E+02  0.17514331735E+01  0.32269790844E+01  0.17194914676E+03  0.17120000000E+03 0.  0.
        998    1    1    2    0    0  0.43355678931E+01  0.29783686677E+01  0.14116418679E+04  0.14116870868E+04  0.10000000000E+02 0. -1.
</event>
<event>
 5    1  0.9130022E-009  0.3807642E+03  0.7957747E-01  0.3447838E+00
         13   -1    0    0    0    0  0.00000000000E+00  0.00000000000E+00  0.14999999963E+04  0.15000000000E+04  0.10566000000E+00 0. -1.
        994   -1    0    0    0    0 -0.00000000000E+00 -0.00000000000E+00  0.11368683772E-12  0.17120000000E+03  0.17120000000E+03 0.  0.
         13    1    1    2    0    0  0.14116206043E+02 -0.59127087487E+00  0.25508371146E+02  0.29159990344E+02  0.10566000000E+00 0. -1.
        994    1    1    2    0    0 -0.45264209510E+01  0.76043625287E+01  0.40090515032E+01  0.17147544229E+03  0.17120000000E+03 0.  0.
        998    1    1    2    0    0 -0.95897850917E+01 -0.70130916538E+01  0.14704825736E+04  0.14705645674E+04  0.10000000000E+02 0. -1.
</event>
<event>
 5    1  0.9130022E-009  0.3859144E+03  0.7957747E-01  0.3425803E+00
         13   -1    0    0    0    0  0.00000000000E+00  0.00000000000E+00  0.14999999963E+04  0.15000000000E+04  0.10566000000E+00 0.  1.
        994   -1    0    0    0    0 -0.00000000000E+00 -0.00000000000E+00  0.11368683772E-12  0.17120000000E+03  0.17120000000E+03 0.  0.
         13    1    1    2    0    0  0.58369731696E+01  0.13007701458E+02  0.82916556574E+02  0.84133447993E+02  0.10566000000E+00 0.  1.
        994    1    1    2    0    0 -0.36115677846E+01 -0.15298920460E+02  0.19874698276E+01  0.17193164463E+03  0.17120000000E+03 0.  0.
        998    1    1    2    0    0 -0.22254053850E+01  0.22912190018E+01  0.14150959699E+04  0.14151349074E+04  0.10000000000E+02 0.  1.
</event>
<event>
 5    1  0.9130022E-009  0.3689335E+03  0.7957747E-01  0.3500807E+00
         13   -1    0    0    0    0  0.00000000000E+00  0.00000000000E+00  0.14999999963E+04  0.15000000000E+04  0.10566000000E+00 0.  1.
        994   -1    0    0    0    0 -0.00000000000E+00 -0.00000000000E+00  0.11368683772E-12  0.17120000000E+03  0.17120000000E+03 0.  0.
         13    1    1    2    0    0  0.70181631606E+01 -0.14686231382E+02  0.80308062375E+01  0.18150620353E+02  0.10566000000E+00 0.  1.
        994    1    1    2    0    0 -0.85230980955E+01  0.13689217080E+02  0.11282172844E+02  0.17232749429E+03  0.17120000000E+03 0.  0.
        998    1    1    2    0    0  0.15049349349E+01  0.99701430171E+00  0.14806870172E+04  0.14807218854E+04  0.10000000000E+02 0.  1.
</event>
<event>
 5    1  0.9130022E-009  0.3844098E+03  0.7957747E-01  0.3432179E+00
         13   -1    0    0    0    0  0.00000000000E+00  0.00000000000E+00  0.14999999963E+04  0.15000000000E+04  0.10566000000E+00 0.  1.
        994   -1    0    0    0    0 -0.00000000000E+00 -0.00000000000E+00  0.11368683772E-12  0.17120000000E+03  0.17120000000E+03 0.  0.
         13    1    1    2    0    0 -0.13088645473E+02  0.12634826171E+02  0.85632867404E+02  0.87543992465E+02  0.10566000000E+00 0.  1.
        994    1    1    2    0    0  0.18635799972E+02  0.17781942026E+01  0.30790502876E+01  0.17224800599E+03  0.17120000000E+03 0.  0.
        998    1    1    2    0    0 -0.55471544986E+01 -0.14413020373E+02  0.14112880786E+04  0.14114080016E+04  0.10000000000E+02 0.  1.
</event>
<event>
 5    1  0.1258059E-008  0.3857488E+03  0.7957747E-01  0.3426503E+00
         13   -1    0    0    0    0  0.00000000000E+00  0.00000000000E+00  0.14999999963E+04  0.15000000000E+04  0.10566000000E+00 0.  1.
        994   -1    0    0    0    0 -0.00000000000E+00 -0.00000000000E+00  0.11368683772E-12  0.17120000000E+03  0.17120000000E+03 0.  0.
         13    1    1    2    0    0  0.13508002141E+02  0.47303026794E+01  0.82783656899E+02  0.84011825947E+02  0.10566000000E+00 0.  1.
        994    1    1    2    0    0 -0.85108236495E+01 -0.49943066031E+00  0.14973083703E+01  0.17141868475E+03  0.17120000000E+03 0.  0.
        998    1    1    2    0    0 -0.49971784917E+01 -0.42308720190E+01  0.14157190310E+04  0.14157694893E+04  0.10000000000E+02 0.  1.
</event>
<event>
 5    1  0.9130022E-009  0.2980618E+03  0.7957747E-01  0.3909954E+00
         13   -1    0    0    0    0  0.00000000000E+00  0.00000000000E+00  0.14999999963E+04  0.15000000000E+04  0.10566000000E+00 0. -1.
        994   -1    0    0    0    0 -0.00000000000E+00 -0.00000000000E+00  0.11368683772E-12  0.17120000000E+03  0.17120000000E+03 0.  0.
         13    1    1    2    0    0 -0.35696308849E+02 -0.19843443181E+03  0.88148961934E+03  0.90425351000E+03  0.10566000000E+00 0. -1.
        994    1    1    2    0    0  0.17808147578E+03  0.10781112542E+03  0.28048767364E+03  0.38899746252E+03  0.17120000000E+03 0.  0.
        998    1    1    2    0    0 -0.14238516693E+03  0.90623306390E+02  0.33802270330E+03  0.37794902747E+03  0.10000000000E+02 0. -1.
</event>
<event>
 5    1  0.9130022E-009  0.3798359E+03  0.7957747E-01  0.3451873E+00
         13   -1    0    0    0    0  0.00000000000E+00  0.00000000000E+00  0.14999999963E+04  0.15000000000E+04  0.10566000000E+00 0.  1.
        994   -1    0    0    0    0 -0.00000000000E+00 -0.00000000000E+00  0.11368683772E-12  0.17120000000E+03  0.17120000000E+03 0.  0.
         13    1    1    2    0    0  0.17456788092E+02 -0.23842872555E+02  0.10243387527E+03  0.10661112507E+03  0.10566000000E+00 0.  1.
        994    1    1    2    0    0 -0.19344070532E+02  0.74194810715E+01  0.56530327940E+01  0.17254170088E+03  0.17120000000E+03 0.  0.
        998    1    1    2    0    0  0.18872824404E+01  0.16423391483E+02  0.13919130882E+04  0.13920471740E+04  0.10000000000E+02 0.  1.
</event>
<event>
 5    1  0.9130022E-009  0.3853027E+03  0.7957747E-01  0.3428389E+00
         13   -1    0    0    0    0  0.00000000000E+00  0.00000000000E+00  0.14999999963E+04  0.15000000000E+04  0.10566000000E+00 0. -1.
        994   -1    0    0    0    0 -0.00000000000E+00 -0.00000000000E+00  0.11368683772E-12  0.17120000000E+03  0.17120000000E+03 0.  0.
         13    1    1    2    0    0 -0.96476990990E+01  0.13109687803E+02  0.96547631890E+02  0.97910154732E+02  0.10566000000E+00 0. -1.
        994    1    1    2    0    0 -0.47796204059E+01 -0.56836163017E+01  0.16611345350E+01  0.17136903931E+03  0.17120000000E+03 0.  0.
        998    1    1    2    0    0  0.14427319505E+02 -0.74260715013E+01  0.14017912299E+04  0.14019208060E+04  0.10000000000E+02 0. -1.
</event>
<event>
 5    1  0.9130022E-009  0.3841300E+03  0.7957747E-01  0.3433370E+00
         13   -1    0    0    0    0  0.00000000000E+00  0.00000000000E+00  0.14999999963E+04  0.15000000000E+04  0.10566000000E+00 0.  1.
        994   -1    0    0    0    0 -0.00000000000E+00 -0.00000000000E+00  0.11368683772E-12  0.17120000000E+03  0.17120000000E+03 0.  0.
         13    1    1    2    0    0  0.19071027938E+02 -0.16373680659E+02  0.13588612139E+03  0.13819135528E+03  0.10566000000E+00 0.  1.
        994    1    1    2    0    0 -0.29598857339E+02  0.11490756485E+02  0.53945466212E+01  0.17420295914E+03  0.17120000000E+03 0.  0.
        998    1    1    2    0    0  0.10527829401E+02  0.48829241739E+01  0.13587193283E+04  0.13588056856E+04  0.10000000000E+02 0.  1.
</event>
<event>
 5    1  0.9130022E-009  0.3805694E+03  0.7957747E-01  0.3448683E+00
         13   -1    0    0    0    0  0.00000000000E+00  0.00000000000E+00  0.14999999963E+04  0.15000000000E+04  0.10566000000E+00 0. -1.
        994   -1    0    0    0    0 -0.00000000000E+00 -0.00000000000E+00  0.11368683772E-12  0.17120000000E+03  0.17120000000E+03 0.  0.
         13    1    1    2    0    0 -0.10018793363E+02 -0.55729018633E+01  0.15100076297E+02  0.18959349246E+02  0.10566000000E+00 0. -1.
        994    1    1    2    0    0  0.12540740794E+02  0.12860331775E+02  0.49232971131E+01  0.17221015408E+03  0.17120000000E+03 0.  0.
        998    1    1    2    0    0 -0.25219474314E+01 -0.72874299113E+01  0.14799766229E+04  0.14800304967E+04  0.10000000000E+02 0. -1.
</event>
<event>
 5    1  0.9130022E-009  0.3804657E+03  0.7957747E-01  0.3449133E+00
         13   -1    0    0    0    0  0.00000000000E+00  0.00000000000E+00  0.14999999963E+04  0.15000000000E+04  0.10566000000E+00 0.  1.
        994   -1    0    0    0    0 -0.00000000000E+00 -0.00000000000E+00  0.11368683772E-12  0.17120000000E+03  0.17120000000E+03 0.  0.
         13    1    1    2    0    0 -0.43208746682E+01  0.10764734736E+02  0.15426758607E+02  0.19301438211E+02  0.10566000000E+00 0.  1.
        994    1    1    2    0    0  0.51149965985E+01 -0.11604048139E+02  0.44352252710E+01  0.17172631815E+03  0.17120000000E+03 0.  0.
        998    1    1    2    0    0 -0.79412193026E+00  0.83931340294E+00  0.14801380124E+04  0.14801722436E+04  0.10000000000E+02 0.  1.
</event>
<event>
 5    1  0.9130022E-009  0.3817181E+03  0.7957747E-01  0.3443712E+00
         13   -1    0    0    0    0  0.00000000000E+00  0.00000000000E+00  0.14999999963E+04  0.15000000000E+04  0.10566000000E+00 0. -1.
        994   -1    0    0    0    0 -0.00000000000E+00 -0.00000000000E+00  0.11368683772E-12  0.17120000000E+03  0.17120000000E+03 0.  0.
         13    1    1    2    0    0 -0.80529690153E+01 -0.22202935785E+02  0.77661829328E+02  0.81173835477E+02  0.10566000000E+00 0. -1.
        994    1    1    2    0    0  0.13602460961E+02  0.28146697026E+02  0.65236520423E+01  0.17415298313E+03  0.17120000000E+03 0.  0.
        998    1    1    2    0    0 -0.55494919457E+01 -0.59437612409E+01  0.14158145149E+04  0.14158731814E+04  0.10000000000E+02 0. -1.
</event>
<event>
 5    1  0.9130022E-009  0.3805562E+03  0.7957747E-01  0.3448740E+00
         13   -1    0    0    0    0  0.00000000000E+00  0.00000000000E+00  0.14999999963E+04  0.15000000000E+04  0.10566000000E+00 0.  1.
        994   -1    0    0    0    0 -0.00000000000E+00 -0.00000000000E+00  0.11368683772E-12  0.17120000000E+03  0.17120000000E+03 0.  0.
         13    1    1    2    0    0 -0.40911098199E+02 -0.21233690470E+02  0.26446440732E+03  0.26845115286E+03  0.10566000000E+00 0.  1.
        994    1    1    2    0    0  0.68895618607E+02 -0.44751440606E+02  0.26711997790E+02  0.19176096716E+03  0.17120000000E+03 0.  0.
        998    1    1    2    0    0 -0.27984520407E+02  0.65985131076E+02  0.12088235912E+04  0.12109878800E+04  0.10000000000E+02 0.  1.
</event>
<event>
 5    1  0.9130022E-009  0.3782702E+03  0.7957747E-01  0.3458725E+00
         13   -1    0    0    0    0  0.00000000000E+00  0.00000000000E+00  0.14999999963E+04  0.15000000000E+04  0.10566000000E+00 0. -1.
        994   -1    0    0    0    0 -0.00000000000E+00 -0.00000000000E+00  0.11368683772E-12  0.17120000000E+03  0.17120000000E+03 0.  0.
         13    1    1    2    0    0 -0.61372439548E+01 -0.15631224990E+02  0.26103567395E+02  0.31038820094E+02  0.10566000000E+00 0. -1.
        994    1    1    2    0    0  0.83768509027E+01  0.88352147067E+01  0.55074506597E+01  0.17172071705E+03  0.17120000000E+03 0.  0.
        998    1    1    2    0    0 -0.22396069479E+01  0.67960102835E+01  0.14683889782E+04  0.14684404629E+04  0.10000000000E+02 0. -1.
</event>
<event>
 5    1  0.9130022E-009  0.3696933E+03  0.7957747E-01  0.3497302E+00
         13   -1    0    0    0    0  0.00000000000E+00  0.00000000000E+00  0.14999999963E+04  0.15000000000E+04  0.10566000000E+00 0. -1.
        994   -1    0    0    0    0 -0.00000000000E+00 -0.00000000000E+00  0.11368683772E-12  0.17120000000E+03  0.17120000000E+03 0.  0.
         13    1    1    2    0    0 -0.46107184057E+02 -0.18344565792E+02  0.12078203672E+03  0.13057835607E+03  0.10566000000E+00 0. -1.
        994    1    1    2    0    0  0.41291479598E+02  0.14107152260E+02  0.16048765123E+02  0.17740067896E+03  0.17120000000E+03 0.  0.
        998    1    1    2    0    0  0.48157044590E+01  0.42374135321E+01  0.13631691944E+04  0.13632209650E+04  0.10000000000E+02 0. -1.
</event>
<event>
 5    1  0.9130022E-009  0.3820016E+03  0.7957747E-01  0.3442489E+00
         13   -1    0    0    0    0  0.00000000000E+00  0.00000000000E+00  0.14999999963E+04  0.15000000000E+04  0.10566000000E+00 0.  1.
        994   -1    0    0    0    0 -0.00000000000E+00 -0.00000000000E+00  0.11368683772E-12  0.17120000000E+03  0.17120000000E+03 0.  0.
         13    1    1    2    0    0 -0.29081400235E+02 -0.10082235905E+02  0.13760910522E+03  0.14100941927E+03  0.10566000000E+00 0.  1.
        994    1    1    2    0    0  0.29161369185E+02  0.12283081468E+02  0.64584054181E+01  0.17421943216E+03  0.17120000000E+03 0.  0.
        998    1    1    2    0    0 -0.79968950178E-01 -0.22008455625E+01  0.13559324856E+04  0.13559711486E+04  0.10000000000E+02 0.  1.
</event>
<event>
 5    1  0.9130022E-009  0.4183999E+03  0.7957747E-01  0.3299299E+00
         13   -1    0    0    0    0  0.00000000000E+00  0.00000000000E+00  0.14999999963E+04  0.15000000000E+04  0.10566000000E+00 0. -1.
        994   -1    0    0    0    0 -0.00000000000E+00 -0.00000000000E+00  0.11368683772E-12  0.17120000000E+03  0.17120000000E+03 0.  0.
         13    1    1    2    0    0  0.66215704347E+02 -0.95054647294E+02  0.14445723504E+03  0.18516967730E+03  0.10566000000E+00 0. -1.
        994    1    1    2    0    0 -0.62422841360E+02  0.95641816025E+02  0.97124787963E+02  0.22756676500E+03  0.17120000000E+03 0.  0.
        998    1    1    2    0    0 -0.37928629870E+01 -0.58716873171E+00  0.12584179733E+04  0.12584635577E+04  0.10000000000E+02 0. -1.
</event>
<event>
 5    1  0.9130022E-009  0.3824315E+03  0.7957747E-01  0.3440639E+00
         13   -1    0    0    0    0  0.00000000000E+00  0.00000000000E+00  0.14999999963E+04  0.15000000000E+04  0.10566000000E+00 0. -1.
        994   -1    0    0    0    0 -0.00000000000E+00 -0.00000000000E+00  0.11368683772E-12  0.17120000000E+03  0.17120000000E+03 0.  0.
         13    1    1    2    0    0  0.49136375772E+01 -0.10504271786E+02  0.23889768471E+02  0.26555898811E+02  0.10566000000E+00 0. -1.
        994    1    1    2    0    0 -0.90745158269E+01 -0.23912036789E+02  0.50830448413E+01  0.17317450645E+03  0.17120000000E+03 0.  0.
        998    1    1    2    0    0  0.41608782497E+01  0.34416308575E+02  0.14710271830E+04  0.14714695947E+04  0.10000000000E+02 0. -1.
</event>
<event>
 5    1  0.9130022E-009  0.4014014E+03  0.7957747E-01  0.3362957E+00
         13   -1    0    0    0    0  0.00000000000E+00  0.00000000000E+00  0.14999999963E+04  0.15000000000E+04  0.10566000000E+00 0. -1.
        994   -1    0    0    0    0 -0.00000000000E+00 -0.00000000000E+00  0.11368683772E-12  0.17120000000E+03  0.17120000000E+03 0.  0.
         13    1    1    2    0    0 -0.14255010385E+02 -0.95749978471E+02  0.17642680638E+03  0.20124038579E+03  0.10566000000E+00 0. -1.
        994    1    1    2    0    0 -0.36885053373E+02  0.35116778588E+02  0.38900287613E+02  0.18280144331E+03  0.17120000000E+03 0.  0.
        998    1    1    2    0    0  0.51140063758E+02  0.60633199882E+02  0.12846729023E+04  0.12871581709E+04  0.10000000000E+02 0. -1.
</event>
<event>
 5    1  0.9130022E-009  0.3837749E+03  0.7957747E-01  0.3434885E+00
         13   -1    0    0    0    0  0.00000000000E+00  0.00000000000E+00  0.14999999963E+04  0.15000000000E+04  0.10566000000E+00 0.  1.
        994   -1    0    0    0    0 -0.00000000000E+00 -0.00000000000E+00  0.11368683772E-12  0.17120000000E+03  0.17120000000E+03 0.  0.
         13    1    1    2    0    0 -0.38922087424E+00  0.13149707665E+02  0.37250201263E+02  0.39505125778E+02  0.10566000000E+00 0.  1.
        994    1    1    2    0    0  0.37999262772E+01 -0.13688383679E+02  0.29062264895E+01  0.17181297227E+03  0.17120000000E+03 0.  0.
        998    1    1    2    0    0 -0.34107054029E+01  0.53867601400E+00  0.14598435685E+04  0.14598819020E+04  0.10000000000E+02 0.  1.
</event>
<event>
 5    1  0.9130022E-009  0.3816834E+03  0.7957747E-01  0.3443861E+00
         13   -1    0    0    0    0  0.00000000000E+00  0.00000000000E+00  0.14999999963E+04  0.15000000000E+04  0.10566000000E+00 0. -1.
        994   -1    0    0    0    0 -0.00000000000E+00 -0.00000000000E+00  0.11368683772E-12  0.17120000000E+03  0.17120000000E+03 0.  0.
         13    1    1    2    0    0 -0.70042715038E+01 -0.16305868592E+02  0.45416237943E+02  0.48760506589E+02  0.10566000000E+00 0. -1.
        994    1    1    2    0    0  0.74492744489E+01  0.17657390352E+02  0.45077194145E+01  0.17232827585E+03  0.17120000000E+03 0.  0.
        998    1    1    2    0    0 -0.44500294510E+00 -0.13515217601E+01  0.14500760389E+04  0.14501112176E+04  0.10000000000E+02 0. -1.
</event>
<event>
 5    1  0.9130022E-009  0.3691972E+03  0.7957747E-01  0.3499588E+00
         13   -1    0    0    0    0  0.00000000000E+00  0.00000000000E+00  0.14999999963E+04  0.15000000000E+04  0.10566000000E+00 0.  1.
        994   -1    0    0    0    0 -0.00000000000E+00 -0.00000000000E+00  0.11368683772E-12  0.17120000000E+03  0.17120000000E+03 0.  0.
         13    1    1    2    0    0  0.17882973747E+02 -0.56186301182E+02  0.20111945565E+03  0.20958470315E+03  0.10566000000E+00 0.  1.
        994    1    1    2    0    0  0.49139008516E+01  0.11714631614E+02  0.10249013037E+02  0.17197633931E+03  0.17120000000E+03 0.  0.
        998    1    1    2    0    0 -0.22796874599E+02  0.44471669567E+02  0.12886315276E+04  0.12896389575E+04  0.10000000000E+02 0.  1.
</event>
<event>
 5    1  0.9130022E-009  0.3838528E+03  0.7957747E-01  0.3434552E+00
         13   -1    0    0    0    0  0.00000000000E+00  0.00000000000E+00  0.14999999963E+04  0.15000000000E+04  0.10566000000E+00 0. -1.
        994   -1    0    0    0    0 -0.00000000000E+00 -0.00000000000E+00  0.11368683772E-12  0.17120000000E+03  0.17120000000E+03 0.  0.
         13    1    1    2    0    0 -0.14256384309E+02 -0.72461567540E+01  0.59706798520E+02  0.61811521861E+02  0.10566000000E+00 0. -1.
        994    1    1    2    0    0 -0.15236342994E+01  0.11549909543E+02  0.26489084693E+01  0.17161637040E+03  0.17120000000E+03 0.  0.
        998    1    1    2    0    0  0.15780018609E+02 -0.43037527890E+01  0.14376442893E+04  0.14377721077E+04  0.10000000000E+02 0. -1.
</event>
<event>
 5    1  0.9130022E-009  0.3753533E+03  0.7957747E-01  0.3471644E+00
         13   -1    0    0    0    0  0.00000000000E+00  0.00000000000E+00  0.14999999963E+04  0.15000000000E+04  0.10566000000E+00 0.  1.
        994   -1    0    0    0    0 -0.00000000000E+00 -0.00000000000E+00  0.11368683772E-12  0.17120000000E+03  0.17120000000E+03 0.  0.
         13    1    1    2    0    0 -0.48284974192E+02  0.15909475663E+02  0.17958665648E+03  0.18664385470E+03  0.10566000000E+00 0.  1.
        994    1    1    2    0    0  0.50733369479E+02  0.64397382971E+01  0.15429187928E+02  0.17934002578E+03  0.17120000000E+03 0.  0.
        998    1    1    2    0    0 -0.24483952872E+01 -0.22349213960E+02  0.13049841519E+04  0.13052161195E+04  0.10000000000E+02 0.  1.
</event>
<event>
 5    1  0.9130022E-009  0.3830225E+03  0.7957747E-01  0.3438102E+00
         13   -1    0    0    0    0  0.00000000000E+00  0.00000000000E+00  0.14999999963E+04  0.15000000000E+04  0.10566000000E+00 0. -1.
        994   -1    0    0    0    0 -0.00000000000E+00 -0.00000000000E+00  0.11368683772E-12  0.17120000000E+03  0.17120000000E+03 0.  0.
         13    1    1    2    0    0  0.13574921413E+02  0.29962746388E+02  0.18961655001E+03  0.19244867333E+03  0.10566000000E+00 0. -1.
        994    1    1    2    0    0 -0.60586102246E+01 -0.28957671509E+02  0.55174871055E+01  0.17382501592E+03  0.17120000000E+03 0.  0.
        998    1    1    2    0    0 -0.75163111887E+01 -0.10050748790E+01  0.13048659592E+04  0.13049263107E+04  0.10000000000E+02 0.  1.
</event>
<event>
 5    1  0.9130022E-009  0.3688620E+03  0.7957747E-01  0.3501137E+00
         13   -1    0    0    0    0  0.00000000000E+00  0.00000000000E+00  0.14999999963E+04  0.15000000000E+04  0.10566000000E+00 0.  1.
        994   -1    0    0    0    0 -0.00000000000E+00 -0.00000000000E+00  0.11368683772E-12  0.17120000000E+03  0.17120000000E+03 0.  0.
         13    1    1    2    0    0 -0.41709187752E+02 -0.36831528882E+02  0.14595141467E+03  0.15619873390E+03  0.10566000000E+00 0.  1.
        994    1    1    2    0    0  0.38373282966E+02  0.25395233265E+02  0.17251467441E+02  0.17811367114E+03  0.17120000000E+03 0.  0.
        998    1    1    2    0    0  0.33359047866E+01  0.11436295617E+02  0.13367971142E+04  0.13368875950E+04  0.10000000000E+02 0.  1.
</event>
<event>
 5    1  0.9130022E-009  0.3811103E+03  0.7957747E-01  0.3446338E+00
         13   -1    0    0    0    0  0.00000000000E+00  0.00000000000E+00  0.14999999963E+04  0.15000000000E+04  0.10566000000E+00 0.  1.
        994   -1    0    0    0    0 -0.00000000000E+00 -0.00000000000E+00  0.11368683772E-12  0.17120000000E+03  0.17120000000E+03 0.  0.
         13    1    1    2    0    0  0.25436138444E+02 -0.17892934205E+01  0.14259471322E+03  0.14485669509E+03  0.10566000000E+00 0.  1.
        994    1    1    2    0    0  0.41067323004E+02 -0.56324285521E+02  0.19930292723E+02  0.18591827970E+03  0.17120000000E+03 0.  0.
        998    1    1    2    0    0 -0.66503461448E+02  0.58113578941E+02  0.13374749903E+04  0.13404250252E+04  0.10000000000E+02 0.  1.
</event>
<event>
 5    1  0.9130022E-009  0.3704091E+03  0.7957747E-01  0.3494013E+00
         13   -1    0    0    0    0  0.00000000000E+00  0.00000000000E+00  0.14999999963E+04  0.15000000000E+04  0.10566000000E+00 0.  1.
        994   -1    0    0    0    0 -0.00000000000E+00 -0.00000000000E+00  0.11368683772E-12  0.17120000000E+03  0.17120000000E+03 0.  0.
         13    1    1    2    0    0 -0.16662110721E+02  0.24733226755E+02  0.44674687307E+02  0.53714032519E+02  0.10566000000E+00 0.  1.
        994    1    1    2    0    0  0.20145506334E+02 -0.19100629611E+02  0.11720973113E+02  0.17383180574E+03  0.17120000000E+03 0.  0.
        998    1    1    2    0    0 -0.34833956127E+01 -0.56325971443E+01  0.14436043359E+04  0.14436541617E+04  0.10000000000E+02 0.  1.
</event>
<event>
 5    1  0.9130022E-009  0.3836571E+03  0.7957747E-01  0.3435388E+00
         13   -1    0    0    0    0  0.00000000000E+00  0.00000000000E+00  0.14999999963E+04  0.15000000000E+04  0.10566000000E+00 0. -1.
        994   -1    0    0    0    0 -0.00000000000E+00 -0.00000000000E+00  0.11368683772E-12  0.17120000000E+03  0.17120000000E+03 0.  0.
         13    1    1    2    0    0  0.17105546420E+02 -0.49276705248E+01  0.68119360041E+02  0.70406960107E+02  0.10566000000E+00 0. -1.
        994    1    1    2    0    0 -0.11226943864E+02  0.51872861529E+01  0.28037195924E+01  0.17166902181E+03  0.17120000000E+03 0.  0.
        998    1    1    2    0    0 -0.58786025555E+01 -0.25961562808E+00  0.14290769166E+04  0.14291240181E+04  0.10000000000E+02 0. -1.
</event>
<event>
 5    1  0.9130022E-009  0.3776111E+03  0.7957747E-01  0.3461627E+00
         13   -1    0    0    0    0  0.00000000000E+00  0.00000000000E+00  0.14999999963E+04  0.15000000000E+04  0.10566000000E+00 0.  1.
        994   -1    0    0    0    0 -0.00000000000E+00 -0.00000000000E+00  0.11368683772E-12  0.17120000000E+03  0.17120000000E+03 0.  0.
         13    1    1    2    0    0  0.69638698504E+02  0.97362373602E+02  0.53445820346E+03  0.54769933589E+03  0.10566000000E+00 0.  1.
        994    1    1    2    0    0 -0.33341588050E+02 -0.44165649308E+02  0.26104224318E+02  0.18180521610E+03  0.17120000000E+03 0.  0.
        998    1    1    2    0    0 -0.36297110453E+02 -0.53196724295E+02  0.93943756850E+03  0.94169544802E+03  0.10000000000E+02 0.  1.
</event>
<event>
 5    1  0.9130022E-009  0.3853806E+03  0.7957747E-01  0.3428060E+00
         13   -1    0    0    0    0  0.00000000000E+00  0.00000000000E+00  0.14999999963E+04  0.15000000000E+04  0.10566000000E+00 0. -1.
        994   -1    0    0    0    0 -0.00000000000E+00 -0.00000000000E+00  0.11368683772E-12  0.17120000000E+03  0.17120000000E+03 0.  0.
         13    1    1    2    0    0  0.91412052704E+01 -0.45302745489E+01  0.35390627132E+02  0.36831951810E+02  0.10566000000E+00 0. -1.
        994    1    1    2    0    0 -0.15212094834E+02 -0.57585944910E+01  0.23107891196E+01  0.17198647908E+03  0.17120000000E+03 0.  0.
        998    1    1    2    0    0  0.60708895632E+01  0.10288869040E+02  0.14622985800E+04  0.14623815691E+04  0.10000000000E+02 0. -1.
</event>
<event>
 5    1  0.9130022E-009  0.3847085E+03  0.7957747E-01  0.3430910E+00
         13   -1    0    0    0    0  0.00000000000E+00  0.00000000000E+00  0.14999999963E+04  0.15000000000E+04  0.10566000000E+00 0. -1.
        994   -1    0    0    0    0 -0.00000000000E+00 -0.00000000000E+00  0.11368683772E-12  0.17120000000E+03  0.17120000000E+03 0.  0.
         13    1    1    2    0    0  0.11972566499E+02  0.13825973292E+02  0.95648548390E+02  0.97381496493E+02  0.10566000000E+00 0. -1.
        994    1    1    2    0    0  0.31263170933E+01 -0.15588992883E+02  0.26075128943E+01  0.17195647612E+03  0.17120000000E+03 0.  0.
        998    1    1    2    0    0 -0.15098883592E+02  0.17630195910E+01  0.14017439350E+04  0.14018620274E+04  0.10000000000E+02 0. -1.
</event>
<event>
 5    1  0.9130022E-009  0.3831202E+03  0.7957747E-01  0.3437684E+00
         13   -1    0    0    0    0  0.00000000000E+00  0.00000000000E+00  0.14999999963E+04  0.15000000000E+04  0.10566000000E+00 0. -1.
        994   -1    0    0    0    0 -0.00000000000E+00 -0.00000000000E+00  0.11368683772E-12  0.17120000000E+03  0.17120000000E+03 0.  0.
         13    1    1    2    0    0 -0.21669784668E+02  0.26940776854E+02  0.26424191702E+02  0.43515906244E+02  0.10566000000E+00 0. -1.
        994    1    1    2    0    0  0.13138257502E+02 -0.12302701287E+02  0.19240240309E+02  0.17321546443E+03  0.17120000000E+03 0.  0.
        998    1    1    2    0    0  0.85315271659E+01 -0.14638075567E+02  0.14543355643E+04  0.14544686293E+04  0.10000000000E+02 0. -1.
</event>
<event>
 5    1  0.9130022E-009  0.3699490E+03  0.7957747E-01  0.3496125E+00
         13   -1    0    0    0    0  0.00000000000E+00  0.00000000000E+00  0.14999999963E+04  0.15000000000E+04  0.10566000000E+00 0. -1.
        994   -1    0    0    0    0 -0.00000000000E+00 -0.00000000000E+00  0.11368683772E-12  0.17120000000E+03  0.17120000000E+03 0.  0.
         13    1    1    2    0    0 -0.86626031631E+01  0.18610224391E+02  0.18705222604E+02  0.27771886183E+02  0.10566000000E+00 0. -1.
        994    1    1    2    0    0 -0.44938557183E+00 -0.15757953330E+02  0.10155585593E+02  0.17222395582E+03  0.17120000000E+03 0.  0.
        998    1    1    2    0    0  0.91119887350E+01 -0.28522710614E+01  0.14711391881E+04  0.14712041580E+04  0.10000000000E+02 0. -1.
</event>
<event>
 5    1  0.9130022E-009  0.3844164E+03  0.7957747E-01  0.3432151E+00
         13   -1    0    0    0    0  0.00000000000E+00  0.00000000000E+00  0.14999999963E+04  0.15000000000E+04  0.10566000000E+00 0.  1.
        994   -1    0    0    0    0 -0.00000000000E+00 -0.00000000000E+00  0.11368683772E-12  0.17120000000E+03  0.17120000000E+03 0.  0.
         13    1    1    2    0    0 -0.13007053744E+02 -0.64052893808E+01  0.53548129912E+02  0.55476342347E+02  0.10566000000E+00 0.  1.
        994    1    1    2    0    0  0.13018423364E+02  0.23638403825E+01  0.24971811742E+01  0.17172869010E+03  0.17120000000E+03 0.  0.
        998    1    1    2    0    0 -0.11369619497E-01  0.40414489983E+01  0.14439546852E+04  0.14439949676E+04  0.10000000000E+02 0.  1.
</event>
<event>
 5    1  0.9130022E-009  0.3850446E+03  0.7957747E-01  0.3429483E+00
         13   -1    0    0    0    0  0.00000000000E+00  0.00000000000E+00  0.14999999963E+04  0.15000000000E+04  0.10566000000E+00 0. -1.
        994   -1    0    0    0    0 -0.00000000000E+00 -0.00000000000E+00  0.11368683772E-12  0.17120000000E+03  0.17120000000E+03 0.  0.
         13    1    1    2    0    0 -0.37089587213E+01  0.13515700163E+02  0.58485953016E+02  0.60141902114E+02  0.10566000000E+00 0. -1.
        994    1    1    2    0    0  0.15147674005E+02 -0.13163901169E+02  0.29333920455E+01  0.17239717257E+03  0.17120000000E+03 0.  0.
        998    1    1    2    0    0 -0.11438715284E+02 -0.35179899416E+00  0.14385806512E+04  0.14386609253E+04  0.10000000000E+02 0. -1.
</event>
<event>
 5    1  0.9130022E-009  0.3737747E+03  0.7957747E-01  0.3478721E+00
         13   -1    0    0    0    0  0.00000000000E+00  0.00000000000E+00  0.14999999963E+04  0.15000000000E+04  0.10566000000E+00 0.  1.
        994   -1    0    0    0    0 -0.00000000000E+00 -0.00000000000E+00  0.11368683772E-12  0.17120000000E+03  0.17120000000E+03 0.  0.
         13    1    1    2    0    0 -0.18216494486E+02 -0.46649581790E+02  0.15648115881E+03  0.16429969074E+03  0.10566000000E+00 0.  1.
        994    1    1    2    0    0  0.19887705785E+02  0.40589227359E+02  0.14314933491E+02  0.17764392345E+03  0.17120000000E+03 0.  0.
        998    1    1    2    0    0 -0.16712112990E+01  0.60603544315E+01  0.13292039040E+04  0.13292563858E+04  0.10000000000E+02 0.  1.
</event>
<event>
 5    1  0.9130022E-009  0.3701528E+03  0.7957747E-01  0.3495189E+00
         13   -1    0    0    0    0  0.00000000000E+00  0.00000000000E+00  0.14999999963E+04  0.15000000000E+04  0.10566000000E+00 0.  1.
        994   -1    0    0    0    0 -0.00000000000E+00 -0.00000000000E+00  0.11368683772E-12  0.17120000000E+03  0.17120000000E+03 0.  0.
         13    1    1    2    0    0  0.10638164392E+02 -0.15113405171E+03  0.71012869372E+03  0.72611117946E+03  0.10566000000E+00 0.  1.
        994    1    1    2    0    0 -0.17408154007E+02  0.13860545706E+03  0.79990151333E+02  0.23499442730E+03  0.17120000000E+03 0.  0.
        998    1    1    2    0    0  0.67699896152E+01  0.12528594652E+02  0.70988115123E+03  0.71009439324E+03  0.10000000000E+02 0.  1.
</event>
<event>
 5    1  0.9130022E-009  0.3830489E+03  0.7957747E-01  0.3437990E+00
         13   -1    0    0    0    0  0.00000000000E+00  0.00000000000E+00  0.14999999963E+04  0.15000000000E+04  0.10566000000E+00 0.  1.
        994   -1    0    0    0    0 -0.00000000000E+00 -0.00000000000E+00  0.11368683772E-12  0.17120000000E+03  0.17120000000E+03 0.  0.
         13    1    1    2    0    0 -0.11018643921E+02 -0.18309897639E+02  0.71821643679E+02  0.74933454013E+02  0.10566000000E+00 0.  1.
        994    1    1    2    0    0  0.35446967686E+02  0.37294706386E+02  0.11413550786E+02  0.17912870173E+03  0.17120000000E+03 0.  0.
        998    1    1    2    0    0 -0.24428323765E+02 -0.18984808746E+02  0.14167648018E+04  0.14171378443E+04  0.10000000000E+02 0.  1.
</event>
<event>
 5    1  0.9130022E-009  0.3687882E+03  0.7957747E-01  0.3501479E+00
         13   -1    0    0    0    0  0.00000000000E+00  0.00000000000E+00  0.14999999963E+04  0.15000000000E+04  0.10566000000E+00 0.  1.
        994   -1    0    0    0    0 -0.00000000000E+00 -0.00000000000E+00  0.11368683772E-12  0.17120000000E+03  0.17120000000E+03 0.  0.
         13    1    1    2    0    0  0.50201462739E+01  0.13190582676E+02  0.49424341193E+01  0.14954335793E+02  0.10566000000E+00 0.  1.
        994    1    1    2    0    0 -0.27120387566E+01 -0.12417887179E+02  0.10862068250E+02  0.17201448661E+03  0.17120000000E+03 0.  0.
        998    1    1    2    0    0 -0.23081075172E+01 -0.77269549655E+00  0.14841954939E+04  0.14842311776E+04  0.10000000000E+02 0.  1.
</event>
<event>
 5    1  0.9130022E-009  0.4338121E+03  0.7957747E-01  0.3245823E+00
         13   -1    0    0    0    0  0.00000000000E+00  0.00000000000E+00  0.14999999963E+04  0.15000000000E+04  0.10566000000E+00 0.  1.
        994   -1    0    0    0    0 -0.00000000000E+00 -0.00000000000E+00  0.11368683772E-12  0.17120000000E+03  0.17120000000E+03 0.  0.
         13    1    1    2    0    0 -0.37819002013E+02  0.24818177994E+02  0.27227445362E+01  0.45317142165E+02  0.10566000000E+00 0.  1.
        994    1    1    2    0    0  0.17995919282E+02 -0.67748922341E+01  0.51481635478E+02  0.17980420203E+03  0.17120000000E+03 0.  0.
        998    1    1    2    0    0  0.19823082730E+02 -0.18043285760E+02  0.14457956163E+04  0.14460786558E+04  0.10000000000E+02 0.  1.
</event>
<event>
 5    1  0.9130022E-009  0.3704412E+03  0.7957747E-01  0.3493866E+00
         13   -1    0    0    0    0  0.00000000000E+00  0.00000000000E+00  0.14999999963E+04  0.15000000000E+04  0.10566000000E+00 0. -1.
        994   -1    0    0    0    0 -0.00000000000E+00 -0.00000000000E+00  0.11368683772E-12  0.17120000000E+03  0.17120000000E+03 0.  0.
         13    1    1    2    0    0  0.52944237489E+02  0.35543281593E+02  0.16594306151E+03  0.17777381128E+03  0.10566000000E+00 0. -1.
        994    1    1    2    0    0 -0.41140329856E+02 -0.37326634140E+02  0.22056357788E+02  0.18133319408E+03  0.17120000000E+03 0.  0.
        998    1    1    2    0    0 -0.11803907633E+02  0.17833525473E+01  0.13120005770E+04  0.13120929946E+04  0.10000000000E+02 0. -1.
</event>
<event>
 5    1  0.9130022E-009  0.3796723E+03  0.7957747E-01  0.3452586E+00
         13   -1    0    0    0    0  0.00000000000E+00  0.00000000000E+00  0.14999999963E+04  0.15000000000E+04  0.10566000000E+00 0. -1.
        994   -1    0    0    0    0 -0.00000000000E+00 -0.00000000000E+00  0.11368683772E-12  0.17120000000E+03  0.17120000000E+03 0.  0.
         13    1    1    2    0    0 -0.23026111877E+02 -0.50526656872E+02  0.32337237737E+03  0.32810493823E+03  0.10566000000E+00 0. -1.
        994    1    1    2    0    0  0.93911532781E+01  0.42112494471E+02  0.10554050550E+02  0.17686854987E+03  0.17120000000E+03 0.  0.
        998    1    1    2    0    0  0.13634958599E+02  0.84141624002E+01  0.11660735684E+04  0.11662265119E+04  0.10000000000E+02 0. -1.
</event>
<event>
 5    1  0.9130022E-009  0.3784817E+03  0.7957747E-01  0.3457796E+00
         13   -1    0    0    0    0  0.00000000000E+00  0.00000000000E+00  0.14999999963E+04  0.15000000000E+04  0.10566000000E+00 0.  1.
        994   -1    0    0    0    0 -0.00000000000E+00 -0.00000000000E+00  0.11368683772E-12  0.17120000000E+03  0.17120000000E+03 0.  0.
         13    1    1    2    0    0 -0.88174338592E+01  0.55998786851E+01  0.93233758229E+01  0.14001509987E+02  0.10566000000E+00 0.  1.
        994    1    1    2    0    0 -0.13499832305E+02  0.10970622436E+01  0.55181280627E+01  0.17182356868E+03  0.17120000000E+03 0.  0.
        998    1    1    2    0    0  0.22317266164E+02 -0.66969409287E+01  0.14851584924E+04  0.14853749213E+04  0.10000000000E+02 0.  1.
</event>
<event>
 5    1  0.9130022E-009  0.3821736E+03  0.7957747E-01  0.3441749E+00
         13   -1    0    0    0    0  0.00000000000E+00  0.00000000000E+00  0.14999999963E+04  0.15000000000E+04  0.10566000000E+00 0. -1.
        994   -1    0    0    0    0 -0.00000000000E+00 -0.00000000000E+00  0.11368683772E-12  0.17120000000E+03  0.17120000000E+03 0.  0.
         13    1    1    2    0    0  0.12591264874E+02  0.10474752424E+02  0.43155987805E+02  0.46159623449E+02  0.10566000000E+00 0. -1.
        994    1    1    2    0    0 -0.59005819656E+01 -0.92569820439E+01  0.34400218524E+01  0.17158607850E+03  0.17120000000E+03 0.  0.
        998    1    1    2    0    0 -0.66906829081E+01 -0.12177703797E+01  0.14534039866E+04  0.14534542981E+04  0.10000000000E+02 0. -1.
</event>
<event>
 5    1  0.9130022E-009  0.3737134E+03  0.7957747E-01  0.3478997E+00
         13   -1    0    0    0    0  0.00000000000E+00  0.00000000000E+00  0.14999999963E+04  0.15000000000E+04  0.10566000000E+00 0. -1.
        994   -1    0    0    0    0 -0.00000000000E+00 -0.00000000000E+00  0.11368683772E-12  0.17120000000E+03  0.17120000000E+03 0.  0.
         13    1    1    2    0    0  0.48740228782E+02  0.65542572387E+01  0.15442387336E+03  0.16206576448E+03  0.10566000000E+00 0. -1.
        994    1    1    2    0    0 -0.41144114064E+02  0.11698119006E+02  0.13613265477E+02  0.17698713260E+03  0.17120000000E+03 0.  0.
        998    1    1    2    0    0 -0.75961147184E+01 -0.18252376245E+02  0.13319628574E+04  0.13321471029E+04  0.10000000000E+02 0. -1.
</event>
<event>
 5    1  0.9130022E-009  0.3774570E+03  0.7957747E-01  0.3462306E+00
         13   -1    0    0    0    0  0.00000000000E+00  0.00000000000E+00  0.14999999963E+04  0.15000000000E+04  0.10566000000E+00 0.  1.
        994   -1    0    0    0    0 -0.00000000000E+00 -0.00000000000E+00  0.11368683772E-12  0.17120000000E+03  0.17120000000E+03 0.  0.
         13    1    1    2    0    0  0.29629901209E+02 -0.61523529999E+02  0.32304332152E+03  0.33018188098E+03  0.10566000000E+00 0.  1.
        994    1    1    2    0    0 -0.33747260210E+02  0.64606890459E+02  0.23548422589E+02  0.18755504811E+03  0.17120000000E+03 0.  0.
        998    1    1    2    0    0  0.41173590009E+01 -0.30833604608E+01  0.11534082522E+04  0.11534630709E+04  0.10000000000E+02 0.  1.
</event>
<event>
 5    1  0.9130022E-009  0.3834126E+03  0.7957747E-01  0.3436433E+00
         13   -1    0    0    0    0  0.00000000000E+00  0.00000000000E+00  0.14999999963E+04  0.15000000000E+04  0.10566000000E+00 0.  1.
        994   -1    0    0    0    0 -0.00000000000E+00 -0.00000000000E+00  0.11368683772E-12  0.17120000000E+03  0.17120000000E+03 0.  0.
         13    1    1    2    0    0 -0.82818099233E+02 -0.46935002823E+02  0.20339942558E+03  0.22457308285E+03  0.10566000000E+00 0.  1.
        994    1    1    2    0    0  0.10617891247E+03  0.18705139380E+02  0.62232583025E+02  0.21167469873E+03  0.17120000000E+03 0.  0.
        998    1    1    2    0    0 -0.23360813238E+02  0.28229863443E+02  0.12343679877E+04  0.12349522184E+04  0.10000000000E+02 0.  1.
</event>
<event>
 5    1  0.9130022E-009  0.3687882E+03  0.7957747E-01  0.3501479E+00
         13   -1    0    0    0    0  0.00000000000E+00  0.00000000000E+00  0.14999999963E+04  0.15000000000E+04  0.10566000000E+00 0.  1.
        994   -1    0    0    0    0 -0.00000000000E+00 -0.00000000000E+00  0.11368683772E-12  0.17120000000E+03  0.17120000000E+03 0.  0.
         13    1    1    2    0    0 -0.59768935902E+02  0.21840889916E+02  0.18928037328E+03  0.19969081362E+03  0.10566000000E+00 0.  1.
        994    1    1    2    0    0  0.47211193411E+02 -0.17044973441E+02  0.18703224411E+02  0.17938416459E+03  0.17120000000E+03 0.  0.
        998    1    1    2    0    0  0.12557742490E+02 -0.47959164744E+01  0.12920163986E+04  0.12921250218E+04  0.10000000000E+02 0.  1.
</event>
<event>
 5    1  0.9130022E-009  0.3751956E+03  0.7957747E-01  0.3472348E+00
         13   -1    0    0    0    0  0.00000000000E+00  0.00000000000E+00  0.14999999963E+04  0.15000000000E+04  0.10566000000E+00 0.  1.
        994   -1    0    0    0    0 -0.00000000000E+00 -0.00000000000E+00  0.11368683772E-12  0.17120000000E+03  0.17120000000E+03 0.  0.
         13    1    1    2    0    0  0.93531131097E+01 -0.10604022385E+02  0.12077932161E+02  0.18596064769E+02  0.10566000000E+00 0.  1.
        994    1    1    2    0    0 -0.79856246341E+01  0.15873237427E+02  0.76515439456E+01  0.17228962822E+03  0.17120000000E+03 0.  0.
        998    1    1    2    0    0 -0.13674884756E+01 -0.52692150425E+01  0.14802705202E+04  0.14803143070E+04  0.10000000000E+02 0.  1.
</event>
<event>
 5    1  0.9130022E-009  0.3842625E+03  0.7957747E-01  0.3432806E+00
         13   -1    0    0    0    0  0.00000000000E+00  0.00000000000E+00  0.14999999963E+04  0.15000000000E+04  0.10566000000E+00 0. -1.
        994   -1    0    0    0    0 -0.00000000000E+00 -0.00000000000E+00  0.11368683772E-12  0.17120000000E+03  0.17120000000E+03 0.  0.
         13    1    1    2    0    0  0.22882153106E+02 -0.23252880949E+00  0.12038316735E+03  0.12253883118E+03  0.10566000000E+00 0. -1.
        994    1    1    2    0    0 -0.28320226653E+02 -0.42954967667E+02  0.10772473327E+02  0.17908838786E+03  0.17120000000E+03 0.  0.
        998    1    1    2    0    0  0.54380735471E+01  0.43187496477E+02  0.13688443556E+04  0.13695727810E+04  0.10000000000E+02 0. -1.
</event>
<event>
 5    1  0.9130022E-009  0.3804256E+03  0.7957747E-01  0.3449307E+00
         13   -1    0    0    0    0  0.00000000000E+00  0.00000000000E+00  0.14999999963E+04  0.15000000000E+04  0.10566000000E+00 0.  1.
        994   -1    0    0    0    0 -0.00000000000E+00 -0.00000000000E+00  0.11368683772E-12  0.17120000000E+03  0.17120000000E+03 0.  0.
         13    1    1    2    0    0  0.86673862884E+02  0.80316581712E+02  0.33848841068E+03  0.35852130639E+03  0.10566000000E+00 0.  1.
        994    1    1    2    0    0 -0.78566374371E+02 -0.72403522409E+02  0.59260481296E+02  0.21032401166E+03  0.17120000000E+03 0.  0.
        998    1    1    2    0    0 -0.81074885125E+01 -0.79130593027E+01  0.11022511043E+04  0.11023546819E+04  0.10000000000E+02 0.  1.
</event>
<event>
 5    1  0.9130022E-009  0.3705701E+03  0.7957747E-01  0.3493275E+00
         13   -1    0    0    0    0  0.00000000000E+00  0.00000000000E+00  0.14999999963E+04  0.15000000000E+04  0.10566000000E+00 0. -1.
        994   -1    0    0    0    0 -0.00000000000E+00 -0.00000000000E+00  0.11368683772E-12  0.17120000000E+03  0.17120000000E+03 0.  0.
         13    1    1    2    0    0 -0.11050526243E+02 -0.23673221948E+01  0.31428191738E+01  0.11730593379E+02  0.10566000000E+00 0. -1.
        994    1    1    2    0    0 -0.15819451437E+02  0.20992755445E+02  0.11359462066E+02  0.17357830568E+03  0.17120000000E+03 0.  0.
        998    1    1    2    0    0  0.26869977680E+02 -0.18625433250E+02  0.14854977150E+04  0.14858911009E+04  0.10000000000E+02 0. -1.
</event>
<event>
 5    1  0.9130022E-009  0.3783162E+03  0.7957747E-01  0.3458523E+00
         13   -1    0    0    0    0  0.00000000000E+00  0.00000000000E+00  0.14999999963E+04  0.15000000000E+04  0.10566000000E+00 0. -1.
        994   -1    0    0    0    0 -0.00000000000E+00 -0.00000000000E+00  0.11368683772E-12  0.17120000000E+03  0.17120000000E+03 0.  0.
         13    1    1    2    0    0 -0.96412814605E+00  0.49764755722E+02  0.75852129596E+02  0.90724953477E+02  0.10566000000E+00 0. -1.
        994    1    1    2    0    0  0.58782995567E+00 -0.30019655633E+02  0.18658787186E+02  0.17481165753E+03  0.17120000000E+03 0.  0.
        998    1    1    2    0    0  0.37629819037E+00 -0.19745100088E+02  0.14054890795E+04  0.14056633890E+04  0.10000000000E+02 0. -1.
</event>
<event>
 5    1  0.9130022E-009  0.3931762E+03  0.7957747E-01  0.3395719E+00
         13   -1    0    0    0    0  0.00000000000E+00  0.00000000000E+00  0.14999999963E+04  0.15000000000E+04  0.10566000000E+00 0. -1.
        994   -1    0    0    0    0 -0.00000000000E+00 -0.00000000000E+00  0.11368683772E-12  0.17120000000E+03  0.17120000000E+03 0.  0.
         13    1    1    2    0    0  0.17509584034E+02  0.83599647149E+02  0.14167933199E+03  0.16543437011E+03  0.10566000000E+00 0. -1.
        994    1    1    2    0    0 -0.17224658152E+02 -0.65251280275E+02  0.41325281279E+02  0.18860444666E+03  0.17120000000E+03 0.  0.
        998    1    1    2    0    0 -0.28492588165E+00 -0.18348366874E+02  0.13169953830E+04  0.13171611832E+04  0.10000000000E+02 0. -1.
</event>
<event>
 5    1  0.9130022E-009  0.3851139E+03  0.7957747E-01  0.3429189E+00
         13   -1    0    0    0    0  0.00000000000E+00  0.00000000000E+00  0.14999999963E+04  0.15000000000E+04  0.10566000000E+00 0.  1.
        994   -1    0    0    0    0 -0.00000000000E+00 -0.00000000000E+00  0.11368683772E-12  0.17120000000E+03  0.17120000000E+03 0.  0.
         13    1    1    2    0    0  0.62926659848E+01  0.13061937670E+02  0.64230885358E+02  0.65847017084E+02  0.10566000000E+00 0.  1.
        994    1    1    2    0    0 -0.16357486831E+02 -0.99291227448E+01  0.27782487359E+01  0.17228846021E+03  0.17120000000E+03 0.  0.
        998    1    1    2    0    0  0.10064820847E+02 -0.31328149251E+01  0.14329908622E+04  0.14330645227E+04  0.10000000000E+02 0.  1.
</event>
<event>
 5    1  0.9130022E-009  0.3850635E+03  0.7957747E-01  0.3429403E+00
         13   -1    0    0    0    0  0.00000000000E+00  0.00000000000E+00  0.14999999963E+04  0.15000000000E+04  0.10566000000E+00 0.  1.
        994   -1    0    0    0    0 -0.00000000000E+00 -0.00000000000E+00  0.11368683772E-12  0.17120000000E+03  0.17120000000E+03 0.  0.
         13    1    1    2    0    0 -0.88490593469E+01  0.98816391939E+01  0.54734563824E+02  0.56319057925E+02  0.10566000000E+00 0.  1.
        994    1    1    2    0    0 -0.67053950637E+01 -0.19593795929E+02  0.30100132015E+01  0.17247428603E+03  0.17120000000E+03 0.  0.
        998    1    1    2    0    0  0.15554454411E+02  0.97121567355E+01  0.14422554193E+04  0.14424066560E+04  0.10000000000E+02 0.  1.
</event>
<event>
 5    1  0.9130022E-009  0.3723847E+03  0.7957747E-01  0.3485003E+00
         13   -1    0    0    0    0  0.00000000000E+00  0.00000000000E+00  0.14999999963E+04  0.15000000000E+04  0.10566000000E+00 0. -1.
        994   -1    0    0    0    0 -0.00000000000E+00 -0.00000000000E+00  0.11368683772E-12  0.17120000000E+03  0.17120000000E+03 0.  0.
         13    1    1    2    0    0 -0.10942977675E+02  0.16757226445E+02  0.21495141592E+02  0.29370149381E+02  0.10566000000E+00 0. -1.
        994    1    1    2    0    0  0.83291045375E+01 -0.12362137793E+02  0.87903052849E+01  0.17207238564E+03  0.17120000000E+03 0.  0.
        998    1    1    2    0    0  0.26138731373E+01 -0.43950886519E+01  0.14697145494E+04  0.14697574650E+04  0.10000000000E+02 0. -1.
</event>
<event>
 5    1  0.9130022E-009  0.3772702E+03  0.7957747E-01  0.3463132E+00
         13   -1    0    0    0    0  0.00000000000E+00  0.00000000000E+00  0.14999999963E+04  0.15000000000E+04  0.10566000000E+00 0. -1.
        994   -1    0    0    0    0 -0.00000000000E+00 -0.00000000000E+00  0.11368683772E-12  0.17120000000E+03  0.17120000000E+03 0.  0.
         13    1    1    2    0    0  0.33195746716E+02 -0.17014068357E+02  0.14473510959E+03  0.14946470899E+03  0.10566000000E+00 0. -1.
        994    1    1    2    0    0  0.12820158958E+01 -0.89688782090E+01  0.57944901728E+01  0.17153746080E+03  0.17120000000E+03 0.  0.
        998    1    1    2    0    0 -0.34477762612E+02  0.25982946567E+02  0.13494703965E+04  0.13501978302E+04  0.10000000000E+02 0. -1.
</event>
<event>
 5    1  0.9130022E-009  0.3803285E+03  0.7957747E-01  0.3449729E+00
         13   -1    0    0    0    0  0.00000000000E+00  0.00000000000E+00  0.14999999963E+04  0.15000000000E+04  0.10566000000E+00 0.  1.
        994   -1    0    0    0    0 -0.00000000000E+00 -0.00000000000E+00  0.11368683772E-12  0.17120000000E+03  0.17120000000E+03 0.  0.
         13    1    1    2    0    0 -0.59562190093E+01 -0.13991684755E+02  0.27188664951E+02  0.31152503158E+02  0.10566000000E+00 0.  1.
        994    1    1    2    0    0  0.31501513789E+01  0.14904729992E+02  0.47427317699E+01  0.17194187371E+03  0.17120000000E+03 0.  0.
        998    1    1    2    0    0  0.28060676304E+01 -0.91304523636E+00  0.14680685996E+04  0.14681056231E+04  0.10000000000E+02 0.  1.
</event>
<event>
 5    1  0.9130022E-009  0.3715000E+03  0.7957747E-01  0.3489025E+00
         13   -1    0    0    0    0  0.00000000000E+00  0.00000000000E+00  0.14999999963E+04  0.15000000000E+04  0.10566000000E+00 0. -1.
        994   -1    0    0    0    0 -0.00000000000E+00 -0.00000000000E+00  0.11368683772E-12  0.17120000000E+03  0.17120000000E+03 0.  0.
         13    1    1    2    0    0  0.76925765311E+02 -0.87860458353E+01  0.28302697273E+03  0.29342639013E+03  0.10566000000E+00 0. -1.
        994    1    1    2    0    0 -0.78393553755E+02  0.14987883779E+00  0.29933270877E+02  0.19065941477E+03  0.17120000000E+03 0.  0.
        998    1    1    2    0    0  0.14677884437E+01  0.86361669975E+01  0.11870397527E+04  0.11871141951E+04  0.10000000000E+02 0. -1.
</event>
<event>
 5    1  0.9130022E-009  0.2980593E+03  0.7957747E-01  0.3909972E+00
         13   -1    0    0    0    0  0.00000000000E+00  0.00000000000E+00  0.14999999963E+04  0.15000000000E+04  0.10566000000E+00 0.  1.
        994   -1    0    0    0    0 -0.00000000000E+00 -0.00000000000E+00  0.11368683772E-12  0.17120000000E+03  0.17120000000E+03 0.  0.
         13    1    1    2    0    0  0.13303108540E+03  0.87849119070E+01  0.76585582761E+03  0.77737352940E+03  0.10566000000E+00 0.  1.
        994    1    1    2    0    0 -0.73229582243E+02 -0.30022083658E+02  0.35113220943E+02  0.19184961691E+03  0.17120000000E+03 0.  0.
        998    1    1    2    0    0 -0.59801503160E+02  0.21237171751E+02  0.69903094773E+03  0.70197685369E+03  0.10000000000E+02 0.  1.
</event>
<event>
 5    1  0.9130022E-009  0.3805026E+03  0.7957747E-01  0.3448973E+00
         13   -1    0    0    0    0  0.00000000000E+00  0.00000000000E+00  0.14999999963E+04  0.15000000000E+04  0.10566000000E+00 0.  1.
        994   -1    0    0    0    0 -0.00000000000E+00 -0.00000000000E+00  0.11368683772E-12  0.17120000000E+03  0.17120000000E+03 0.  0.
         13    1    1    2    0    0  0.26441886327E+02  0.79800087484E+01  0.98556014574E+02  0.10235308039E+03  0.10566000000E+00 0.  1.
        994    1    1    2    0    0 -0.20102278136E+02  0.17336088078E+02  0.62348349748E+01  0.17335788042E+03  0.17120000000E+03 0.  0.
        998    1    1    2    0    0 -0.63396081908E+01 -0.25316096826E+02  0.13952091467E+04  0.13954890392E+04  0.10000000000E+02 0.  1.
</event>
<event>
 5    1  0.9130022E-009  0.3699015E+03  0.7957747E-01  0.3496344E+00
         13   -1    0    0    0    0  0.00000000000E+00  0.00000000000E+00  0.14999999963E+04  0.15000000000E+04  0.10566000000E+00 0.  1.
        994   -1    0    0    0    0 -0.00000000000E+00 -0.00000000000E+00  0.11368683772E-12  0.17120000000E+03  0.17120000000E+03 0.  0.
         13    1    1    2    0    0  0.89552503728E+02 -0.24983699870E+02  0.18701227502E+03  0.20884788329E+03  0.10566000000E+00 0.  1.
        994    1    1    2    0    0 -0.19310528717E+03  0.66028005210E+02  0.17464191116E+03  0.31852564503E+03  0.17120000000E+03 0.  0.
        998    1    1    2    0    0  0.10355278344E+03 -0.41044305340E+02  0.11383458101E+04  0.11438264717E+04  0.10000000000E+02 0.  1.
</event>
<event>
 5    1  0.9130022E-009  0.3785573E+03  0.7957747E-01  0.3457464E+00
         13   -1    0    0    0    0  0.00000000000E+00  0.00000000000E+00  0.14999999963E+04  0.15000000000E+04  0.10566000000E+00 0.  1.
        994   -1    0    0    0    0 -0.00000000000E+00 -0.00000000000E+00  0.11368683772E-12  0.17120000000E+03  0.17120000000E+03 0.  0.
         13    1    1    2    0    0  0.35041419948E+02 -0.69548486094E+01  0.11720951296E+03  0.12253306543E+03  0.10566000000E+00 0.  1.
        994    1    1    2    0    0 -0.39196020814E+02  0.12237976828E+02  0.10547609662E+02  0.17637116599E+03  0.17120000000E+03 0.  0.
        998    1    1    2    0    0  0.41546008657E+01 -0.52831282190E+01  0.13722428737E+04  0.13722957686E+04  0.10000000000E+02 0.  1.
</event>
<event>
 5    1  0.9130022E-009  0.3842806E+03  0.7957747E-01  0.3432729E+00
         13   -1    0    0    0    0  0.00000000000E+00  0.00000000000E+00  0.14999999963E+04  0.15000000000E+04  0.10566000000E+00 0. -1.
        994   -1    0    0    0    0 -0.00000000000E+00 -0.00000000000E+00  0.11368683772E-12  0.17120000000E+03  0.17120000000E+03 0.  0.
         13    1    1    2    0    0  0.13260075809E+01 -0.15965407669E+02  0.65374211804E+02  0.67308627019E+02  0.10566000000E+00 0. -1.
        994    1    1    2    0    0 -0.12414208276E+02  0.65913715135E+01  0.26392222340E+01  0.17179628704E+03  0.17120000000E+03 0.  0.
        998    1    1    2    0    0  0.11088200696E+02  0.93740361556E+01  0.14319865622E+04  0.14320950859E+04  0.10000000000E+02 0. -1.
</event>
<event>
 5    1  0.9130022E-009  0.3811123E+03  0.7957747E-01  0.3446329E+00
         13   -1    0    0    0    0  0.00000000000E+00  0.00000000000E+00  0.14999999963E+04  0.15000000000E+04  0.10566000000E+00 0. -1.
        994   -1    0    0    0    0 -0.00000000000E+00 -0.00000000000E+00  0.11368683772E-12  0.17120000000E+03  0.17120000000E+03 0.  0.
         13    1    1    2    0    0  0.11215736066E+02  0.55337559225E+01  0.20112733893E+02  0.23684349659E+02  0.10566000000E+00 0. -1.
        994    1    1    2    0    0 -0.14473722144E+02 -0.33342826812E+01  0.43078041566E+01  0.17189707167E+03  0.17120000000E+03 0.  0.
        998    1    1    2    0    0  0.32579860786E+01 -0.21994732413E+01  0.14755794582E+04  0.14756185787E+04  0.10000000000E+02 0. -1.
</event>
<event>
 5    1  0.9130022E-009  0.3839308E+03  0.7957747E-01  0.3434220E+00
         13   -1    0    0    0    0  0.00000000000E+00  0.00000000000E+00  0.14999999963E+04  0.15000000000E+04  0.10566000000E+00 0. -1.
        994   -1    0    0    0    0 -0.00000000000E+00 -0.00000000000E+00  0.11368683772E-12  0.17120000000E+03  0.17120000000E+03 0.  0.
         13    1    1    2    0    0  0.42892251219E+01  0.15693627871E+02  0.60788174951E+02  0.62927742577E+02  0.10566000000E+00 0. -1.
        994    1    1    2    0    0 -0.13896424093E+02 -0.72454540103E+01  0.29728694528E+01  0.17194151668E+03  0.17120000000E+03 0.  0.
        998    1    1    2    0    0  0.96071989713E+01 -0.84481738605E+01  0.14362389519E+04  0.14363307407E+04  0.10000000000E+02 0. -1.
</event>
<event>
 5    1  0.9130022E-009  0.3782990E+03  0.7957747E-01  0.3458598E+00
         13   -1    0    0    0    0  0.00000000000E+00  0.00000000000E+00  0.14999999963E+04  0.15000000000E+04  0.10566000000E+00 0. -1.
        994   -1    0    0    0    0 -0.00000000000E+00 -0.00000000000E+00  0.11368683772E-12  0.17120000000E+03  0.17120000000E+03 0.  0.
         13    1    1    2    0    0 -0.93691774061E+01 -0.11431335900E+02  0.19958337532E+02  0.24835525499E+02  0.10566000000E+00 0. -1.
        994    1    1    2    0    0  0.16603124640E+01  0.68251919002E+01  0.51601454756E+01  0.17142172261E+03  0.17120000000E+03 0.  0.
        998    1    1    2    0    0  0.77088649421E+01  0.46061440001E+01  0.14748815133E+04  0.14749427519E+04  0.10000000000E+02 0. -1.
</event>
<event>
 5    1  0.9130022E-009  0.3777946E+03  0.7957747E-01  0.3460818E+00
         13   -1    0    0    0    0  0.00000000000E+00  0.00000000000E+00  0.14999999963E+04  0.15000000000E+04  0.10566000000E+00 0.  1.
        994   -1    0    0    0    0 -0.00000000000E+00 -0.00000000000E+00  0.11368683772E-12  0.17120000000E+03  0.17120000000E+03 0.  0.
         13    1    1    2    0    0 -0.28977965995E+02  0.28842870390E+02  0.19156667415E+03  0.19588117698E+03  0.10566000000E+00 0.  1.
        994    1    1    2    0    0  0.15085671148E+02  0.21818343456E+02  0.76236084540E+01  0.17341042930E+03  0.17120000000E+03 0.  0.
        998    1    1    2    0    0  0.13892294847E+02 -0.50661213846E+02  0.13008097137E+04  0.13019083937E+04  0.10000000000E+02 0.  1.
</event>
<event>
 5    1  0.9130022E-009  0.3810481E+03  0.7957747E-01  0.3446607E+00
         13   -1    0    0    0    0  0.00000000000E+00  0.00000000000E+00  0.14999999963E+04  0.15000000000E+04  0.10566000000E+00 0.  1.
        994   -1    0    0    0    0 -0.00000000000E+00 -0.00000000000E+00  0.11368683772E-12  0.17120000000E+03  0.17120000000E+03 0.  0.
         13    1    1    2    0    0  0.30611986255E+02  0.34924944434E+02  0.24768338428E+03  0.25199983226E+03  0.10566000000E+00 0.  1.
        994    1    1    2    0    0 -0.46122135601E+02 -0.24273061951E+02  0.12707937936E+02  0.17940837387E+03  0.17120000000E+03 0.  0.
        998    1    1    2    0    0  0.15510149346E+02 -0.10651882483E+02  0.12396086741E+04  0.12397917939E+04  0.10000000000E+02 0.  1.
</event>
<event>
 5    1  0.9130022E-009  0.3793654E+03  0.7957747E-01  0.3453926E+00
         13   -1    0    0    0    0  0.00000000000E+00  0.00000000000E+00  0.14999999963E+04  0.15000000000E+04  0.10566000000E+00 0. -1.
        994   -1    0    0    0    0 -0.00000000000E+00 -0.00000000000E+00  0.11368683772E-12  0.17120000000E+03  0.17120000000E+03 0.  0.
         13    1    1    2    0    0  0.26890453324E+02 -0.92629998338E+01  0.90386446227E+02  0.94755582798E+02  0.10566000000E+00 0. -1.
        994    1    1    2    0    0 -0.13279627143E+02  0.68812407592E+01  0.52035547320E+01  0.17193084934E+03  0.17120000000E+03 0.  0.
        998    1    1    2    0    0 -0.13610826180E+02  0.23817590746E+01  0.14044099953E+04  0.14045135679E+04  0.10000000000E+02 0. -1.
</event>
<event>
 5    1  0.9130022E-009  0.3781948E+03  0.7957747E-01  0.3459057E+00
         13   -1    0    0    0    0  0.00000000000E+00  0.00000000000E+00  0.14999999963E+04  0.15000000000E+04  0.10566000000E+00 0. -1.
        994   -1    0    0    0    0 -0.00000000000E+00 -0.00000000000E+00  0.11368683772E-12  0.17120000000E+03  0.17120000000E+03 0.  0.
         13    1    1    2    0    0 -0.83257616517E+01 -0.62658339272E+01  0.84341680466E+01  0.13406167855E+02  0.10566000000E+00 0. -1.
        994    1    1    2    0    0  0.72934779190E+01  0.65738852425E+01  0.53714789250E+01  0.17156544982E+03  0.17120000000E+03 0.  0.
        998    1    1    2    0    0  0.10322837327E+01 -0.30805131540E+00  0.14861943493E+04  0.14862283823E+04  0.10000000000E+02 0. -1.
</event>
<event>
 5    1  0.9130022E-009  0.3799318E+03  0.7957747E-01  0.3451455E+00
         13   -1    0    0    0    0  0.00000000000E+00  0.00000000000E+00  0.14999999963E+04  0.15000000000E+04  0.10566000000E+00 0. -1.
        994   -1    0    0    0    0 -0.00000000000E+00 -0.00000000000E+00  0.11368683772E-12  0.17120000000E+03  0.17120000000E+03 0.  0.
         13    1    1    2    0    0 -0.84786698196E+01 -0.81122016235E+01  0.14668801088E+02  0.18785115024E+02  0.10566000000E+00 0. -1.
        994    1    1    2    0    0  0.57425079056E+01  0.84563318989E+01  0.45170017428E+01  0.17156435892E+03  0.17120000000E+03 0.  0.
        998    1    1    2    0    0  0.27361619140E+01 -0.34413027539E+00  0.14808141934E+04  0.14808505261E+04  0.10000000000E+02 0. -1.
</event>
<event>
 5    1  0.9130022E-009  0.3739957E+03  0.7957747E-01  0.3477727E+00
         13   -1    0    0    0    0  0.00000000000E+00  0.00000000000E+00  0.14999999963E+04  0.15000000000E+04  0.10566000000E+00 0. -1.
        994   -1    0    0    0    0 -0.00000000000E+00 -0.00000000000E+00  0.11368683772E-12  0.17120000000E+03  0.17120000000E+03 0.  0.
         13    1    1    2    0    0  0.21922867326E+02  0.26838003614E+02  0.76222786481E+02  0.83730609055E+02  0.10566000000E+00 0. -1.
        994    1    1    2    0    0 -0.21463923296E+02 -0.31365200908E+02  0.12138082701E+02  0.17578751060E+03  0.17120000000E+03 0.  0.
        998    1    1    2    0    0 -0.45894403008E+00  0.45271972942E+01  0.14116391271E+04  0.14116818803E+04  0.10000000000E+02 0. -1.
</event>
<event>
 5    1  0.9130022E-009  0.3811798E+03  0.7957747E-01  0.3446037E+00
         13   -1    0    0    0    0  0.00000000000E+00  0.00000000000E+00  0.14999999963E+04  0.15000000000E+04  0.10566000000E+00 0. -1.
        994   -1    0    0    0    0 -0.00000000000E+00 -0.00000000000E+00  0.11368683772E-12  0.17120000000E+03  0.17120000000E+03 0.  0.
         13    1    1    2    0    0  0.57198481662E+01  0.23475652872E+02  0.82335716355E+02  0.85807950055E+02  0.10566000000E+00 0. -1.
        994    1    1    2    0    0 -0.91370599613E+01 -0.10680948517E+02  0.41969455825E+01  0.17182730539E+03  0.17120000000E+03 0.  0.
        998    1    1    2    0    0  0.34172117951E+01 -0.12794704355E+02  0.14134673343E+04  0.14135647446E+04  0.10000000000E+02 0. -1.
</event>
<event>
 5    1  0.9130022E-009  0.3726337E+03  0.7957747E-01  0.3483874E+00
         13   -1    0    0    0    0  0.00000000000E+00  0.00000000000E+00  0.14999999963E+04  0.15000000000E+04  0.10566000000E+00 0.  1.
        994   -1    0    0    0    0 -0.00000000000E+00 -0.00000000000E+00  0.11368683772E-12  0.17120000000E+03  0.17120000000E+03 0.  0.
         13    1    1    2    0    0 -0.26837141534E+02  0.54546643804E+02  0.27740980742E+03  0.28399257197E+03  0.10566000000E+00 0.  1.
        994    1    1    2    0    0  0.77546278786E+01 -0.58441253419E+01  0.82220776519E+01  0.17167216028E+03  0.17120000000E+03 0.  0.
        998    1    1    2    0    0  0.19082513656E+02 -0.48702518462E+02  0.12143681112E+04  0.12155352678E+04  0.10000000000E+02 0.  1.
</event>
<event>
 5    1  0.9130022E-009  0.3735605E+03  0.7957747E-01  0.3479686E+00
         13   -1    0    0    0    0  0.00000000000E+00  0.00000000000E+00  0.14999999963E+04  0.15000000000E+04  0.10566000000E+00 0. -1.
        994   -1    0    0    0    0 -0.00000000000E+00 -0.00000000000E+00  0.11368683772E-12  0.17120000000E+03  0.17120000000E+03 0.  0.
         13    1    1    2    0    0 -0.46602617506E+02  0.42816847403E+02  0.25654277257E+03  0.26423340383E+03  0.10566000000E+00 0. -1.
        994    1    1    2    0    0  0.12496224643E+02 -0.51096319992E+02  0.16930844726E+02  0.17989742369E+03  0.17120000000E+03 0.  0.
        998    1    1    2    0    0  0.34106392863E+02  0.82794725881E+01  0.12265263790E+04  0.12270691725E+04  0.10000000000E+02 0. -1.
</event>
<event>
 5    1  0.9130022E-009  0.3776589E+03  0.7957747E-01  0.3461416E+00
         13   -1    0    0    0    0  0.00000000000E+00  0.00000000000E+00  0.14999999963E+04  0.15000000000E+04  0.10566000000E+00 0.  1.
        994   -1    0    0    0    0 -0.00000000000E+00 -0.00000000000E+00  0.11368683772E-12  0.17120000000E+03  0.17120000000E+03 0.  0.
         13    1    1    2    0    0 -0.26971379888E+02  0.71262887409E+01  0.69919652565E+02  0.75279534424E+02  0.10566000000E+00 0.  1.
        994    1    1    2    0    0  0.21458789561E+02 -0.55209559525E+01  0.69753895433E+01  0.17276879540E+03  0.17120000000E+03 0.  0.
        998    1    1    2    0    0  0.55125903272E+01 -0.16053327883E+01  0.14231049542E+04  0.14231516702E+04  0.10000000000E+02 0.  1.
</event>
<event>
 5    1  0.9130022E-009  0.3801506E+03  0.7957747E-01  0.3450503E+00
         13   -1    0    0    0    0  0.00000000000E+00  0.00000000000E+00  0.14999999963E+04  0.15000000000E+04  0.10566000000E+00 0. -1.
        994   -1    0    0    0    0 -0.00000000000E+00 -0.00000000000E+00  0.11368683772E-12  0.17120000000E+03  0.17120000000E+03 0.  0.
         13    1    1    2    0    0  0.27798244695E+01 -0.14676497478E+03  0.42049022748E+03  0.44537593987E+03  0.10566000000E+00 0. -1.
        994    1    1    2    0    0 -0.10168412320E+02  0.15325398314E+03  0.10779252015E+03  0.25400560498E+03  0.17120000000E+03 0.  0.
        998    1    1    2    0    0  0.73885878503E+01 -0.64890083684E+01  0.97171724865E+03  0.97181845516E+03  0.10000000000E+02 0. -1.
</event>
<event>
 5    1  0.9130022E-009  0.3817428E+03  0.7957747E-01  0.3443605E+00
         13   -1    0    0    0    0  0.00000000000E+00  0.00000000000E+00  0.14999999963E+04  0.15000000000E+04  0.10566000000E+00 0. -1.
        994   -1    0    0    0    0 -0.00000000000E+00 -0.00000000000E+00  0.11368683772E-12  0.17120000000E+03  0.17120000000E+03 0.  0.
         13    1    1    2    0    0 -0.15950827703E+02 -0.94269576302E+01  0.55358380800E+02  0.58376861199E+02  0.10566000000E+00 0. -1.
        994    1    1    2    0    0 -0.15618340107E+00 -0.77416833828E+01  0.34552748014E+01  0.17140985088E+03  0.17120000000E+03 0.  0.
        998    1    1    2    0    0  0.16107011104E+02  0.17168641013E+02  0.14411863407E+04  0.14414132879E+04  0.10000000000E+02 0. -1.
</event>
<event>
 5    1  0.9130022E-009  0.3780533E+03  0.7957747E-01  0.3459679E+00
         13   -1    0    0    0    0  0.00000000000E+00  0.00000000000E+00  0.14999999963E+04  0.15000000000E+04  0.10566000000E+00 0.  1.
        994   -1    0    0    0    0 -0.00000000000E+00 -0.00000000000E+00  0.11368683772E-12  0.17120000000E+03  0.17120000000E+03 0.  0.
         13    1    1    2    0    0 -0.11577895771E+02 -0.12851755016E+02  0.26695946675E+02  0.31810375829E+02  0.10566000000E+00 0.  1.
        994    1    1    2    0    0 -0.21730793340E+01  0.25382918923E+02  0.73057994004E+01  0.17323922637E+03  0.17120000000E+03 0.  0.
        998    1    1    2    0    0  0.13750975105E+02 -0.12531163907E+02  0.14659982502E+04  0.14661503978E+04  0.10000000000E+02 0.  1.
</event>
<event>
 5    1  0.9130022E-009  0.3782971E+03  0.7957747E-01  0.3458607E+00
         13   -1    0    0    0    0  0.00000000000E+00  0.00000000000E+00  0.14999999963E+04  0.15000000000E+04  0.10566000000E+00 0. -1.
        994   -1    0    0    0    0 -0.00000000000E+00 -0.00000000000E+00  0.11368683772E-12  0.17120000000E+03  0.17120000000E+03 0.  0.
         13    1    1    2    0    0 -0.51830215867E+01  0.27158075518E+02  0.75996081337E+02  0.80869279218E+02  0.10566000000E+00 0. -1.
        994    1    1    2    0    0  0.59135271931E+01 -0.12293716935E+02  0.56211544031E+01  0.17183463753E+03  0.17120000000E+03 0.  0.
        998    1    1    2    0    0 -0.73050560635E+00 -0.14864358583E+02  0.14183827605E+04  0.14184960832E+04  0.10000000000E+02 0. -1.
</event>
<event>
 5    1  0.9130022E-009  0.3834813E+03  0.7957747E-01  0.3436139E+00
         13   -1    0    0    0    0  0.00000000000E+00  0.00000000000E+00  0.14999999963E+04  0.15000000000E+04  0.10566000000E+00 0.  1.
        994   -1    0    0    0    0 -0.00000000000E+00 -0.00000000000E+00  0.11368683772E-12  0.17120000000E+03  0.17120000000E+03 0.  0.
         13    1    1    2    0    0  0.35842616301E+01  0.12789820000E+02  0.35702169138E+02  0.38093076434E+02  0.10566000000E+00 0.  1.
        994    1    1    2    0    0  0.13984116678E+01 -0.13727999471E+02  0.30156007903E+01  0.17178168521E+03  0.17120000000E+03 0.  0.
        998    1    1    2    0    0 -0.49826732979E+01  0.93817947095E+00  0.14612822264E+04  0.14613252384E+04  0.10000000000E+02 0.  1.
</event>
<event>
 5    1  0.9130022E-009  0.3786305E+03  0.7957747E-01  0.3457144E+00
         13   -1    0    0    0    0  0.00000000000E+00  0.00000000000E+00  0.14999999963E+04  0.15000000000E+04  0.10566000000E+00 0.  1.
        994   -1    0    0    0    0 -0.00000000000E+00 -0.00000000000E+00  0.11368683772E-12  0.17120000000E+03  0.17120000000E+03 0.  0.
         13    1    1    2    0    0 -0.96353257738E+01 -0.39673649068E+02  0.17193959659E+03  0.17672032700E+03  0.10566000000E+00 0.  1.
        994    1    1    2    0    0 -0.15150712187E+01  0.24046082517E+02  0.67779364053E+01  0.17301991200E+03  0.17120000000E+03 0.  0.
        998    1    1    2    0    0  0.11150396992E+02  0.15627566551E+02  0.13212824633E+04  0.13214597610E+04  0.10000000000E+02 0.  1.
</event>
<event>
 5    1  0.9406508E-009  0.3860871E+03  0.7957747E-01  0.3425075E+00
         13   -1    0    0    0    0  0.00000000000E+00  0.00000000000E+00  0.14999999963E+04  0.15000000000E+04  0.10566000000E+00 0. -1.
        994   -1    0    0    0    0 -0.00000000000E+00 -0.00000000000E+00  0.11368683772E-12  0.17120000000E+03  0.17120000000E+03 0.  0.
         13    1    1    2    0    0  0.24841625386E+01  0.10959164734E+02  0.65766557522E+02  0.66719754252E+02  0.10566000000E+00 0. -1.
        994    1    1    2    0    0  0.50244479805E+01  0.60421539492E+01  0.12937485553E+01  0.17138514080E+03  0.17120000000E+03 0.  0.
        998    1    1    2    0    0 -0.75086105192E+01 -0.17001318683E+02  0.14329396902E+04  0.14330951049E+04  0.10000000000E+02 0. -1.
</event>
<event>
 5    1  0.9130022E-009  0.3790297E+03  0.7957747E-01  0.3455394E+00
         13   -1    0    0    0    0  0.00000000000E+00  0.00000000000E+00  0.14999999963E+04  0.15000000000E+04  0.10566000000E+00 0. -1.
        994   -1    0    0    0    0 -0.00000000000E+00 -0.00000000000E+00  0.11368683772E-12  0.17120000000E+03  0.17120000000E+03 0.  0.
         13    1    1    2    0    0  0.43470494706E+01  0.42391383377E+02  0.21734978421E+03  0.22148784636E+03  0.10566000000E+00 0. -1.
        994    1    1    2    0    0  0.13352392544E+02 -0.11666071420E+02  0.56787915405E+01  0.17220938500E+03  0.17120000000E+03 0.  0.
        998    1    1    2    0    0 -0.17699442015E+02 -0.30725311958E+02  0.12769714205E+04  0.12775027686E+04  0.10000000000E+02 0. -1.
</event>
<event>
 5    1  0.9130022E-009  0.3812576E+03  0.7957747E-01  0.3445701E+00
         13   -1    0    0    0    0  0.00000000000E+00  0.00000000000E+00  0.14999999963E+04  0.15000000000E+04  0.10566000000E+00 0.  1.
        994   -1    0    0    0    0 -0.00000000000E+00 -0.00000000000E+00  0.11368683772E-12  0.17120000000E+03  0.17120000000E+03 0.  0.
         13    1    1    2    0    0 -0.15207587372E+02  0.72705795612E+01  0.40197385985E+02  0.43588680238E+02  0.10566000000E+00 0.  1.
        994    1    1    2    0    0  0.62293286885E+01  0.11386450182E+01  0.36331826026E+01  0.17135559829E+03  0.17120000000E+03 0.  0.
        998    1    1    2    0    0  0.89782586837E+01 -0.84092245793E+01  0.14561694277E+04  0.14562557215E+04  0.10000000000E+02 0.  1.
</event>
<event>
 5    1  0.9130022E-009  0.3835870E+03  0.7957747E-01  0.3435687E+00
         13   -1    0    0    0    0  0.00000000000E+00  0.00000000000E+00  0.14999999963E+04  0.15000000000E+04  0.10566000000E+00 0.  1.
        994   -1    0    0    0    0 -0.00000000000E+00 -0.00000000000E+00  0.11368683772E-12  0.17120000000E+03  0.17120000000E+03 0.  0.
         13    1    1    2    0    0  0.26534325472E+02  0.86308253804E+00  0.14739964660E+03  0.14977143360E+03  0.10566000000E+00 0.  1.
        994    1    1    2    0    0 -0.21066742887E+02  0.29861478250E+02  0.67580976608E+01  0.17518740658E+03  0.17120000000E+03 0.  0.
        998    1    1    2    0    0 -0.54675825854E+01 -0.30724560788E+02  0.13458422520E+04  0.13462411598E+04  0.10000000000E+02 0.  1.
</event>
<event>
 5    1  0.9130022E-009  0.3830440E+03  0.7957747E-01  0.3438010E+00
         13   -1    0    0    0    0  0.00000000000E+00  0.00000000000E+00  0.14999999963E+04  0.15000000000E+04  0.10566000000E+00 0.  1.
        994   -1    0    0    0    0 -0.00000000000E+00 -0.00000000000E+00  0.11368683772E-12  0.17120000000E+03  0.17120000000E+03 0.  0.
         13    1    1    2    0    0 -0.70558431641E+02 -0.29669814283E+02  0.14260716635E+03  0.16185056445E+03  0.10566000000E+00 0.  1.
        994    1    1    2    0    0  0.75902029603E+02  0.16155038131E+02  0.40426600956E+02  0.19226506032E+03  0.17120000000E+03 0.  0.
        998    1    1    2    0    0 -0.53435979624E+01  0.13514776152E+02  0.13169662290E+04  0.13170843752E+04  0.10000000000E+02 0.  1.
</event>
<event>
 5    1  0.9130022E-009  0.3750757E+03  0.7957747E-01  0.3472884E+00
         13   -1    0    0    0    0  0.00000000000E+00  0.00000000000E+00  0.14999999963E+04  0.15000000000E+04  0.10566000000E+00 0. -1.
        994   -1    0    0    0    0 -0.00000000000E+00 -0.00000000000E+00  0.11368683772E-12  0.17120000000E+03  0.17120000000E+03 0.  0.
         13    1    1    2    0    0  0.10271873312E+02 -0.18335107025E+02  0.30111725042E+02  0.36720766332E+02  0.10566000000E+00 0. -1.
        994    1    1    2    0    0 -0.10741610667E+02  0.16361235111E+02  0.79427611002E+01  0.17249811497E+03  0.17120000000E+03 0.  0.
        998    1    1    2    0    0  0.46973735477E+00  0.19738719142E+01  0.14619455101E+04  0.14619811187E+04  0.10000000000E+02 0. -1.
</event>
<event>
 5    1  0.9130022E-009  0.3746537E+03  0.7957747E-01  0.3474773E+00
         13   -1    0    0    0    0  0.00000000000E+00  0.00000000000E+00  0.14999999963E+04  0.15000000000E+04  0.10566000000E+00 0. -1.
        994   -1    0    0    0    0 -0.00000000000E+00 -0.00000000000E+00  0.11368683772E-12  0.17120000000E+03  0.17120000000E+03 0.  0.
         13    1    1    2    0    0 -0.90842101062E+01  0.73607846342E+01  0.67645360495E+01  0.13508298771E+02  0.10566000000E+00 0. -1.
        994    1    1    2    0    0  0.11084977823E+02 -0.68855410690E+01  0.74364131820E+01  0.17185757955E+03  0.17120000000E+03 0.  0.
        998    1    1    2    0    0 -0.20007677166E+01 -0.47524356521E+00  0.14857990470E+04  0.14858341217E+04  0.10000000000E+02 0. -1.
</event>
<event>
 5    1  0.9130022E-009  0.3815122E+03  0.7957747E-01  0.3444600E+00
         13   -1    0    0    0    0  0.00000000000E+00  0.00000000000E+00  0.14999999963E+04  0.15000000000E+04  0.10566000000E+00 0. -1.
        994   -1    0    0    0    0 -0.00000000000E+00 -0.00000000000E+00  0.11368683772E-12  0.17120000000E+03  0.17120000000E+03 0.  0.
         13    1    1    2    0    0 -0.40662116960E+02  0.14295023665E+02  0.46046420918E+02  0.63071701267E+02  0.10566000000E+00 0. -1.
        994    1    1    2    0    0  0.41741468855E+02 -0.16860005605E+02  0.24581453167E+02  0.17871848771E+03  0.17120000000E+03 0.  0.
        998    1    1    2    0    0 -0.10793518951E+01  0.25649819395E+01  0.14293721222E+04  0.14294098110E+04  0.10000000000E+02 0. -1.
</event>
<event>
 5    1  0.9130022E-009  0.3783881E+03  0.7957747E-01  0.3458207E+00
         13   -1    0    0    0    0  0.00000000000E+00  0.00000000000E+00  0.14999999963E+04  0.15000000000E+04  0.10566000000E+00 0. -1.
        994   -1    0    0    0    0 -0.00000000000E+00 -0.00000000000E+00  0.11368683772E-12  0.17120000000E+03  0.17120000000E+03 0.  0.
         13    1    1    2    0    0  0.32774828511E+02  0.36321241309E+01  0.12215339261E+03  0.12652606135E+03  0.10566000000E+00 0. -1.
        994    1    1    2    0    0  0.24685360920E+01  0.48989103915E+01  0.50501923348E+01  0.17136229876E+03  0.17120000000E+03 0.  0.
        998    1    1    2    0    0 -0.35243364603E+02 -0.85310345224E+01  0.13727964113E+04  0.13733116399E+04  0.10000000000E+02 0. -1.
</event>
<event>
 5    1  0.9130022E-009  0.3807273E+03  0.7957747E-01  0.3447998E+00
         13   -1    0    0    0    0  0.00000000000E+00  0.00000000000E+00  0.14999999963E+04  0.15000000000E+04  0.10566000000E+00 0.  1.
        994   -1    0    0    0    0 -0.00000000000E+00 -0.00000000000E+00  0.11368683772E-12  0.17120000000E+03  0.17120000000E+03 0.  0.
         13    1    1    2    0    0  0.13628754508E+02 -0.23047624241E+01  0.23640258689E+02  0.27384811013E+02  0.10566000000E+00 0.  1.
        994    1    1    2    0    0 -0.10839912676E+02  0.11171129730E+02  0.45749226509E+01  0.17196705430E+03  0.17120000000E+03 0.  0.
        998    1    1    2    0    0 -0.27888418325E+01 -0.88663673058E+01  0.14717848149E+04  0.14718481347E+04  0.10000000000E+02 0.  1.
</event>
<event>
 5    1  0.9130022E-009  0.3820898E+03  0.7957747E-01  0.3442109E+00
         13   -1    0    0    0    0  0.00000000000E+00  0.00000000000E+00  0.14999999963E+04  0.15000000000E+04  0.10566000000E+00 0.  1.
        994   -1    0    0    0    0 -0.00000000000E+00 -0.00000000000E+00  0.11368683772E-12  0.17120000000E+03  0.17120000000E+03 0.  0.
         13    1    1    2    0    0 -0.51353956874E+01 -0.10525070503E+02  0.21127634906E+02  0.24156521246E+02  0.10566000000E+00 0.  1.
        994    1    1    2    0    0  0.37981294579E+01  0.58552652291E+01  0.32436620964E+01  0.17137290119E+03  0.17120000000E+03 0.  0.
        998    1    1    2    0    0  0.13372662295E+01  0.46698052736E+01  0.14756286993E+04  0.14756705776E+04  0.10000000000E+02 0.  1.
</event>
<event>
 5    1  0.9130022E-009  0.3806057E+03  0.7957747E-01  0.3448525E+00
         13   -1    0    0    0    0  0.00000000000E+00  0.00000000000E+00  0.14999999963E+04  0.15000000000E+04  0.10566000000E+00 0. -1.
        994   -1    0    0    0    0 -0.00000000000E+00 -0.00000000000E+00  0.11368683772E-12  0.17120000000E+03  0.17120000000E+03 0.  0.
         13    1    1    2    0    0  0.14868941334E+02 -0.15382693362E+01  0.28041557879E+02  0.31777221736E+02  0.10566000000E+00 0. -1.
        994    1    1    2    0    0 -0.62827216170E+01 -0.26465427226E+01  0.39827632481E+01  0.17138196866E+03  0.17120000000E+03 0.  0.
        998    1    1    2    0    0 -0.85862197170E+01  0.41848120587E+01  0.14679756752E+04  0.14680408096E+04  0.10000000000E+02 0. -1.
</event>
<event>
 5    1  0.9130022E-009  0.3813003E+03  0.7957747E-01  0.3445516E+00
         13   -1    0    0    0    0  0.00000000000E+00  0.00000000000E+00  0.14999999963E+04  0.15000000000E+04  0.10566000000E+00 0. -1.
        994   -1    0    0    0    0 -0.00000000000E+00 -0.00000000000E+00  0.11368683772E-12  0.17120000000E+03  0.17120000000E+03 0.  0.
         13    1    1    2    0    0  0.11831915963E+02 -0.56294023122E+01  0.23086888634E+02  0.26546186102E+02  0.10566000000E+00 0. -1.
        994    1    1    2    0    0 -0.11238107394E+02  0.47388620781E+01  0.39735063081E+01  0.17167987833E+03  0.17120000000E+03 0.  0.
        998    1    1    2    0    0 -0.59380856907E+00  0.89054023413E+00  0.14729396013E+04  0.14729739356E+04  0.10000000000E+02 0. -1.
</event>
<event>
 5    1  0.9130022E-009  0.3705696E+03  0.7957747E-01  0.3493277E+00
         13   -1    0    0    0    0  0.00000000000E+00  0.00000000000E+00  0.14999999963E+04  0.15000000000E+04  0.10566000000E+00 0. -1.
        994   -1    0    0    0    0 -0.00000000000E+00 -0.00000000000E+00  0.11368683772E-12  0.17120000000E+03  0.17120000000E+03 0.  0.
         13    1    1    2    0    0  0.69832470069E+01  0.42415735897E+02  0.76793265920E+02  0.88006120498E+02  0.10566000000E+00 0. -1.
        994    1    1    2    0    0 -0.67080033296E+01 -0.33003738885E+02  0.15223936536E+02  0.17514409020E+03  0.17120000000E+03 0.  0.
        998    1    1    2    0    0 -0.27524367728E+00 -0.94119970119E+01  0.14079827938E+04  0.14080497893E+04  0.10000000000E+02 0. -1.
</event>
<event>
 5    1  0.9130022E-009  0.3835453E+03  0.7957747E-01  0.3435865E+00
         13   -1    0    0    0    0  0.00000000000E+00  0.00000000000E+00  0.14999999963E+04  0.15000000000E+04  0.10566000000E+00 0.  1.
        994   -1    0    0    0    0 -0.00000000000E+00 -0.00000000000E+00  0.11368683772E-12  0.17120000000E+03  0.17120000000E+03 0.  0.
         13    1    1    2    0    0  0.22441067716E+02  0.18211862591E+01  0.11989726305E+03  0.12199296329E+03  0.10566000000E+00 0.  1.
        994    1    1    2    0    0  0.18960669976E+01 -0.80146166365E+01  0.25782519299E+01  0.17141737524E+03  0.17120000000E+03 0.  0.
        998    1    1    2    0    0 -0.24337134714E+02  0.61934303774E+01  0.13775244813E+04  0.13777896615E+04  0.10000000000E+02 0.  1.
</event>
<event>
 5    1  0.9881900E-009  0.3858715E+03  0.7957747E-01  0.3425985E+00
         13   -1    0    0    0    0  0.00000000000E+00  0.00000000000E+00  0.14999999963E+04  0.15000000000E+04  0.10566000000E+00 0. -1.
        994   -1    0    0    0    0 -0.00000000000E+00 -0.00000000000E+00  0.11368683772E-12  0.17120000000E+03  0.17120000000E+03 0.  0.
         13    1    1    2    0    0  0.60019501258E+01 -0.14842503595E+02  0.95180685377E+02  0.96517860271E+02  0.10566000000E+00 0. -1.
        994    1    1    2    0    0 -0.11398164124E+02  0.22114462169E+02  0.32305447008E+01  0.17302844853E+03  0.17120000000E+03 0.  0.
        998    1    1    2    0    0  0.53962139986E+01 -0.72719585738E+01  0.14015887662E+04  0.14016536912E+04  0.10000000000E+02 0. -1.
</event>
<event>
 5    1  0.9130022E-009  0.3844633E+03  0.7957747E-01  0.3431952E+00
         13   -1    0    0    0    0  0.00000000000E+00  0.00000000000E+00  0.14999999963E+04  0.15000000000E+04  0.10566000000E+00 0.  1.
        994   -1    0    0    0    0 -0.00000000000E+00 -0.00000000000E+00  0.11368683772E-12  0.17120000000E+03  0.17120000000E+03 0.  0.
         13    1    1    2    0    0  0.15605877514E+02  0.83423857538E+01  0.81533232397E+02  0.83431516600E+02  0.10566000000E+00 0.  1.
        994    1    1    2    0    0 -0.14693068208E+02  0.13022689606E+00  0.26084369689E+01  0.17184919888E+03  0.17120000000E+03 0.  0.
        998    1    1    2    0    0 -0.91280930577E+00 -0.84726126499E+01  0.14158583269E+04  0.14159192845E+04  0.10000000000E+02 0.  1.
</event>
<event>
 5    1  0.9130022E-009  0.3747853E+03  0.7957747E-01  0.3474184E+00
         13   -1    0    0    0    0  0.00000000000E+00  0.00000000000E+00  0.14999999963E+04  0.15000000000E+04  0.10566000000E+00 0. -1.
        994   -1    0    0    0    0 -0.00000000000E+00 -0.00000000000E+00  0.11368683772E-12  0.17120000000E+03  0.17120000000E+03 0.  0.
         13    1    1    2    0    0 -0.12714715127E+01  0.22254355362E+02  0.32027071166E+02  0.39020730694E+02  0.10566000000E+00 0. -1.
        994    1    1    2    0    0  0.19755349279E+02 -0.33842546243E+02  0.12030533976E+02  0.17603910222E+03  0.17120000000E+03 0.  0.
        998    1    1    2    0    0 -0.18483877766E+02  0.11588190881E+02  0.14559423911E+04  0.14561401671E+04  0.10000000000E+02 0. -1.
</event>
<event>
 5    1  0.9130022E-009  0.3845572E+03  0.7957747E-01  0.3431552E+00
         13   -1    0    0    0    0  0.00000000000E+00  0.00000000000E+00  0.14999999963E+04  0.15000000000E+04  0.10566000000E+00 0.  1.
        994   -1    0    0    0    0 -0.00000000000E+00 -0.00000000000E+00  0.11368683772E-12  0.17120000000E+03  0.17120000000E+03 0.  0.
         13    1    1    2    0    0  0.11815927155E+02  0.14154890929E+02  0.92000879335E+02  0.93830432346E+02  0.10566000000E+00 0.  1.
        994    1    1    2    0    0 -0.71689949232E+01 -0.87359113491E+01  0.22708511373E+01  0.17158760853E+03  0.17120000000E+03 0.  0.
        998    1    1    2    0    0 -0.46469322323E+01 -0.54189795802E+01  0.14057282658E+04  0.14057819591E+04  0.10000000000E+02 0.  1.
</event>
<event>
 5    1  0.9130022E-009  0.3837955E+03  0.7957747E-01  0.3434797E+00
         13   -1    0    0    0    0  0.00000000000E+00  0.00000000000E+00  0.14999999963E+04  0.15000000000E+04  0.10566000000E+00 0. -1.
        994   -1    0    0    0    0 -0.00000000000E+00 -0.00000000000E+00  0.11368683772E-12  0.17120000000E+03  0.17120000000E+03 0.  0.
         13    1    1    2    0    0 -0.27385171813E+02  0.69052585439E+01  0.15859676207E+03  0.16109181957E+03  0.10566000000E+00 0. -1.
        994    1    1    2    0    0  0.28477256884E+02 -0.12976769185E+02  0.54693951893E+01  0.17412267222E+03  0.17120000000E+03 0.  0.
        998    1    1    2    0    0 -0.10920850704E+01  0.60715106407E+01  0.13359338390E+04  0.13359855082E+04  0.10000000000E+02 0. -1.
</event>
<event>
 5    1  0.9130022E-009  0.3686437E+03  0.7957747E-01  0.3502147E+00
         13   -1    0    0    0    0  0.00000000000E+00  0.00000000000E+00  0.14999999963E+04  0.15000000000E+04  0.10566000000E+00 0. -1.
        994   -1    0    0    0    0 -0.00000000000E+00 -0.00000000000E+00  0.11368683772E-12  0.17120000000E+03  0.17120000000E+03 0.  0.
         13    1    1    2    0    0 -0.51861189165E+02 -0.12490700090E+02  0.15861778906E+03  0.16734758648E+03  0.10566000000E+00 0. -1.
        994    1    1    2    0    0  0.89003043989E+01 -0.41532799019E+02  0.16527420675E+02  0.17716315770E+03  0.17120000000E+03 0.  0.
        998    1    1    2    0    0  0.42960884766E+02  0.54023499109E+02  0.13248547865E+04  0.13266892558E+04  0.10000000000E+02 0. -1.
</event>
<event>
 5    1  0.9624865E-009  0.3858357E+03  0.7957747E-01  0.3426135E+00
         13   -1    0    0    0    0  0.00000000000E+00  0.00000000000E+00  0.14999999963E+04  0.15000000000E+04  0.10566000000E+00 0.  1.
        994   -1    0    0    0    0 -0.00000000000E+00 -0.00000000000E+00  0.11368683772E-12  0.17120000000E+03  0.17120000000E+03 0.  0.
         13    1    1    2    0    0  0.28677672784E+01 -0.12502247463E+02  0.68559487857E+02  0.69749156411E+02  0.10566000000E+00 0.  1.
        994    1    1    2    0    0  0.26051767252E+01  0.88161251495E+01  0.14929972501E+01  0.17145314243E+03  0.17120000000E+03 0.  0.
        998    1    1    2    0    0 -0.54729440036E+01  0.36861223133E+01  0.14299475112E+04  0.14299977012E+04  0.10000000000E+02 0.  1.
</event>
<event>
 5    1  0.9130022E-009  0.3804392E+03  0.7957747E-01  0.3449248E+00
         13   -1    0    0    0    0  0.00000000000E+00  0.00000000000E+00  0.14999999963E+04  0.15000000000E+04  0.10566000000E+00 0.  1.
        994   -1    0    0    0    0 -0.00000000000E+00 -0.00000000000E+00  0.11368683772E-12  0.17120000000E+03  0.17120000000E+03 0.  0.
         13    1    1    2    0    0  0.36581517287E+01 -0.45726008574E+02  0.24330990731E+03  0.24759638950E+03  0.10566000000E+00 0.  1.
        994    1    1    2    0    0 -0.84740833283E+01  0.37160328117E+02  0.87760502851E+01  0.17561081724E+03  0.17120000000E+03 0.  0.
        998    1    1    2    0    0  0.48159315996E+01  0.85656804568E+01  0.12479140387E+04  0.12479927933E+04  0.10000000000E+02 0.  1.
</event>
<event>
 5    1  0.9130022E-009  0.3773278E+03  0.7957747E-01  0.3462877E+00
         13   -1    0    0    0    0  0.00000000000E+00  0.00000000000E+00  0.14999999963E+04  0.15000000000E+04  0.10566000000E+00 0. -1.
        994   -1    0    0    0    0 -0.00000000000E+00 -0.00000000000E+00  0.11368683772E-12  0.17120000000E+03  0.17120000000E+03 0.  0.
         13    1    1    2    0    0  0.29728741809E+02 -0.44855312613E+02  0.25000132939E+03  0.25572734116E+03  0.10566000000E+00 0. -1.
        994    1    1    2    0    0 -0.23735340370E+02  0.28856300609E+02  0.10211136190E+02  0.17552709127E+03  0.17120000000E+03 0.  0.
        998    1    1    2    0    0 -0.59934014390E+01  0.15999012003E+02  0.12397875307E+04  0.12399455676E+04  0.10000000000E+02 0. -1.
</event>
<event>
 5    1  0.9130022E-009  0.3870746E+03  0.7957747E-01  0.3420921E+00
         13   -1    0    0    0    0  0.00000000000E+00  0.00000000000E+00  0.14999999963E+04  0.15000000000E+04  0.10566000000E+00 0. -1.
        994   -1    0    0    0    0 -0.00000000000E+00 -0.00000000000E+00  0.11368683772E-12  0.17120000000E+03  0.17120000000E+03 0.  0.
         13    1    1    2    0    0 -0.54545905837E+02 -0.77764612950E+02  0.20006087258E+03  0.22146547083E+03  0.10566000000E+00 0. -1.
        994    1    1    2    0    0  0.70834103357E+02  0.47749375072E+02  0.47958602739E+02  0.19724842355E+03  0.17120000000E+03 0.  0.
        998    1    1    2    0    0 -0.16288197519E+02  0.30015237878E+02  0.12519805210E+04  0.12524861056E+04  0.10000000000E+02 0. -1.
</event>
<event>
 5    1  0.9130022E-009  0.3792717E+03  0.7957747E-01  0.3454336E+00
         13   -1    0    0    0    0  0.00000000000E+00  0.00000000000E+00  0.14999999963E+04  0.15000000000E+04  0.10566000000E+00 0. -1.
        994   -1    0    0    0    0 -0.00000000000E+00 -0.00000000000E+00  0.11368683772E-12  0.17120000000E+03  0.17120000000E+03 0.  0.
         13    1    1    2    0    0  0.18501952914E+02 -0.65806404789E+02  0.38675337224E+03  0.39274799462E+03  0.10566000000E+00 0. -1.
        994    1    1    2    0    0 -0.17643224921E+02  0.65562856686E+02  0.20106725152E+02  0.18526600325E+03  0.17120000000E+03 0.  0.
        998    1    1    2    0    0 -0.85872799339E+00  0.24354810290E+00  0.10931398989E+04  0.10931860021E+04  0.10000000000E+02 0.  0.
</event>
<event>
 5    1  0.9130022E-009  0.3831109E+03  0.7957747E-01  0.3437724E+00
         13   -1    0    0    0    0  0.00000000000E+00  0.00000000000E+00  0.14999999963E+04  0.15000000000E+04  0.10566000000E+00 0. -1.
        994   -1    0    0    0    0 -0.00000000000E+00 -0.00000000000E+00  0.11368683772E-12  0.17120000000E+03  0.17120000000E+03 0.  0.
         13    1    1    2    0    0 -0.13182718130E+02  0.15338680910E+02  0.82822997198E+02  0.85256784001E+02  0.10566000000E+00 0. -1.
        994    1    1    2    0    0  0.83063497676E+01  0.13208501309E+01  0.28050750334E+01  0.17142942728E+03  0.17120000000E+03 0.  0.
        998    1    1    2    0    0  0.48763683620E+01 -0.16659531041E+02  0.14143719240E+04  0.14145137887E+04  0.10000000000E+02 0. -1.
</event>
<event>
 5    1  0.9130022E-009  0.3856981E+03  0.7957747E-01  0.3426717E+00
         13   -1    0    0    0    0  0.00000000000E+00  0.00000000000E+00  0.14999999963E+04  0.15000000000E+04  0.10566000000E+00 0. -1.
        994   -1    0    0    0    0 -0.00000000000E+00 -0.00000000000E+00  0.11368683772E-12  0.17120000000E+03  0.17120000000E+03 0.  0.
         13    1    1    2    0    0 -0.40566193280E+00 -0.12907497290E+02  0.68515392493E+02  0.69721863289E+02  0.10566000000E+00 0. -1.
        994    1    1    2    0    0  0.74266234887E+01  0.21386777248E+01  0.14799551326E+01  0.17138074263E+03  0.17120000000E+03 0.  0.
        998    1    1    2    0    0 -0.70209615559E+01  0.10768819566E+02  0.14300046487E+04  0.14300973941E+04  0.10000000000E+02 0. -1.
</event>
<event>
 5    1  0.9130022E-009  0.3747377E+03  0.7957747E-01  0.3474397E+00
         13   -1    0    0    0    0  0.00000000000E+00  0.00000000000E+00  0.14999999963E+04  0.15000000000E+04  0.10566000000E+00 0. -1.
        994   -1    0    0    0    0 -0.00000000000E+00 -0.00000000000E+00  0.11368683772E-12  0.17120000000E+03  0.17120000000E+03 0.  0.
         13    1    1    2    0    0 -0.95934275299E+02 -0.10045711160E+03  0.70017457036E+03  0.71382032515E+03  0.10566000000E+00 0. -1.
        994    1    1    2    0    0  0.81911744667E+02  0.11542941008E+03  0.78353012845E+02  0.23554642270E+03  0.17120000000E+03 0.  0.
        998    1    1    2    0    0  0.14022530631E+02 -0.14972298482E+02  0.72147241307E+03  0.72183325215E+03  0.10000000000E+02 0. -1.
</event>
<event>
 5    1  0.9130022E-009  0.3714330E+03  0.7957747E-01  0.3489331E+00
         13   -1    0    0    0    0  0.00000000000E+00  0.00000000000E+00  0.14999999963E+04  0.15000000000E+04  0.10566000000E+00 0. -1.
        994   -1    0    0    0    0 -0.00000000000E+00 -0.00000000000E+00  0.11368683772E-12  0.17120000000E+03  0.17120000000E+03 0.  0.
         13    1    1    2    0    0  0.12441124925E+03 -0.74001135480E+02  0.53627360842E+03  0.55546711986E+03  0.10566000000E+00 0. -1.
        994    1    1    2    0    0 -0.13024511509E+03  0.64340812576E+02  0.90028911023E+02  0.24190530169E+03  0.17120000000E+03 0.  0.
        998    1    1    2    0    0  0.58338658324E+01  0.96603229043E+01  0.87369747684E+03  0.87382757845E+03  0.10000000000E+02 0. -1.
</event>
<event>
 5    1  0.9130022E-009  0.3855656E+03  0.7957747E-01  0.3427277E+00
         13   -1    0    0    0    0  0.00000000000E+00  0.00000000000E+00  0.14999999963E+04  0.15000000000E+04  0.10566000000E+00 0.  1.
        994   -1    0    0    0    0 -0.00000000000E+00 -0.00000000000E+00  0.11368683772E-12  0.17120000000E+03  0.17120000000E+03 0.  0.
         13    1    1    2    0    0  0.85061610317E+01 -0.80408359431E+01  0.70079619225E+02  0.71050503256E+02  0.10566000000E+00 0.  1.
        994    1    1    2    0    0  0.23698596768E+02 -0.23644671006E+02  0.50370729439E+01  0.17451505969E+03  0.17120000000E+03 0.  0.
        998    1    1    2    0    0 -0.32204757800E+02  0.31685506949E+02  0.14248833041E+04  0.14256344371E+04  0.10000000000E+02 0.  1.
</event>
<event>
 5    1  0.9130022E-009  0.3805880E+03  0.7957747E-01  0.3448602E+00
         13   -1    0    0    0    0  0.00000000000E+00  0.00000000000E+00  0.14999999963E+04  0.15000000000E+04  0.10566000000E+00 0. -1.
        994   -1    0    0    0    0 -0.00000000000E+00 -0.00000000000E+00  0.11368683772E-12  0.17120000000E+03  0.17120000000E+03 0.  0.
         13    1    1    2    0    0 -0.13464712796E+02 -0.11867321051E+02  0.40301674979E+02  0.44117660520E+02  0.10566000000E+00 0. -1.
        994    1    1    2    0    0  0.59483604469E+01  0.13823712835E+02  0.45925932184E+01  0.17192152262E+03  0.17120000000E+03 0.  0.
        998    1    1    2    0    0  0.75163523488E+01 -0.19563917845E+01  0.14551057281E+04  0.14551608169E+04  0.10000000000E+02 0. -1.
</event>
<event>
 5    1  0.9130022E-009  0.3782988E+03  0.7957747E-01  0.3458600E+00
         13   -1    0    0    0    0  0.00000000000E+00  0.00000000000E+00  0.14999999963E+04  0.15000000000E+04  0.10566000000E+00 0.  1.
        994   -1    0    0    0    0 -0.00000000000E+00 -0.00000000000E+00  0.11368683772E-12  0.17120000000E+03  0.17120000000E+03 0.  0.
         13    1    1    2    0    0 -0.24602638228E+02  0.34676049228E+02  0.19179174607E+03  0.19644796569E+03  0.10566000000E+00 0.  1.
        994    1    1    2    0    0 -0.56602116081E+01 -0.22348041667E+02  0.67831591193E+01  0.17287835090E+03  0.17120000000E+03 0.  0.
        998    1    1    2    0    0  0.30262849836E+02 -0.12328007561E+02  0.13014250911E+04  0.13018736834E+04  0.10000000000E+02 0.  1.
</event>
<event>
 5    1  0.9130022E-009  0.3726351E+03  0.7957747E-01  0.3483867E+00
         13   -1    0    0    0    0  0.00000000000E+00  0.00000000000E+00  0.14999999963E+04  0.15000000000E+04  0.10566000000E+00 0.  1.
        994   -1    0    0    0    0 -0.00000000000E+00 -0.00000000000E+00  0.11368683772E-12  0.17120000000E+03  0.17120000000E+03 0.  0.
         13    1    1    2    0    0  0.14177036047E+02  0.84587893598E+01  0.13716337174E+02  0.21463656213E+02  0.10566000000E+00 0.  1.
        994    1    1    2    0    0 -0.13345158726E+02 -0.46616699264E+01  0.85831685316E+01  0.17199690465E+03  0.17120000000E+03 0.  0.
        998    1    1    2    0    0 -0.83187732121E+00 -0.37971194334E+01  0.14777004906E+04  0.14777394391E+04  0.10000000000E+02 0.  1.
</event>
<event>
 5    1  0.1084364E-008  0.3862429E+03  0.7957747E-01  0.3424418E+00
         13   -1    0    0    0    0  0.00000000000E+00  0.00000000000E+00  0.14999999963E+04  0.15000000000E+04  0.10566000000E+00 0.  1.
        994   -1    0    0    0    0 -0.00000000000E+00 -0.00000000000E+00  0.11368683772E-12  0.17120000000E+03  0.17120000000E+03 0.  0.
         13    1    1    2    0    0 -0.15750285468E+01 -0.10975892160E+02  0.59871462514E+02  0.60889688053E+02  0.10566000000E+00 0.  1.
        994    1    1    2    0    0  0.58111444794E+01  0.10453638404E+02  0.14829866293E+01  0.17162367903E+03  0.17120000000E+03 0.  0.
        998    1    1    2    0    0 -0.42361159327E+01  0.52225375606E+00  0.14386455471E+04  0.14386866329E+04  0.10000000000E+02 0.  1.
</event>
<event>
 5    1  0.9130022E-009  0.3805326E+03  0.7957747E-01  0.3448843E+00
         13   -1    0    0    0    0  0.00000000000E+00  0.00000000000E+00  0.14999999963E+04  0.15000000000E+04  0.10566000000E+00 0.  1.
        994   -1    0    0    0    0 -0.00000000000E+00 -0.00000000000E+00  0.11368683772E-12  0.17120000000E+03  0.17120000000E+03 0.  0.
         13    1    1    2    0    0 -0.83600876070E+02 -0.18313622375E+02  0.30965863152E+03  0.32126776135E+03  0.10566000000E+00 0.  1.
        994    1    1    2    0    0 -0.85015460434E+01 -0.25501005808E+02  0.19247774778E+02  0.17436311082E+03  0.17120000000E+03 0.  0.
        998    1    1    2    0    0  0.92102422114E+02  0.43814628182E+02  0.11710935900E+04  0.11755691278E+04  0.10000000000E+02 0.  1.
</event>
<event>
 5    1  0.9130022E-009  0.3787372E+03  0.7957747E-01  0.3456675E+00
         13   -1    0    0    0    0  0.00000000000E+00  0.00000000000E+00  0.14999999963E+04  0.15000000000E+04  0.10566000000E+00 0. -1.
        994   -1    0    0    0    0 -0.00000000000E+00 -0.00000000000E+00  0.11368683772E-12  0.17120000000E+03  0.17120000000E+03 0.  0.
         13    1    1    2    0    0 -0.14529343654E+02 -0.23031588779E+01  0.20462236051E+02  0.25201599871E+02  0.10566000000E+00 0. -1.
        994    1    1    2    0    0  0.14133945274E+02  0.61041909795E+00  0.54440771333E+01  0.17186977336E+03  0.17120000000E+03 0.  0.
        998    1    1    2    0    0  0.39539837985E+00  0.16927397800E+01  0.14740936831E+04  0.14741286268E+04  0.10000000000E+02 0. -1.
</event>
<event>
 5    1  0.9130022E-009  0.3737793E+03  0.7957747E-01  0.3478700E+00
         13   -1    0    0    0    0  0.00000000000E+00  0.00000000000E+00  0.14999999963E+04  0.15000000000E+04  0.10566000000E+00 0. -1.
        994   -1    0    0    0    0 -0.00000000000E+00 -0.00000000000E+00  0.11368683772E-12  0.17120000000E+03  0.17120000000E+03 0.  0.
         13    1    1    2    0    0  0.40645444485E+02  0.44879029719E+01  0.10960779547E+03  0.11698749259E+03  0.10566000000E+00 0. -1.
        994    1    1    2    0    0 -0.27969487284E+02 -0.18542619955E+02  0.11160307270E+02  0.17481451150E+03  0.17120000000E+03 0.  0.
        998    1    1    2    0    0 -0.12675957202E+02  0.14054716983E+02  0.13792318935E+04  0.13793979959E+04  0.10000000000E+02 0. -1.
</event>
<event>
 5    1  0.9130022E-009  0.3786778E+03  0.7957747E-01  0.3456936E+00
         13   -1    0    0    0    0  0.00000000000E+00  0.00000000000E+00  0.14999999963E+04  0.15000000000E+04  0.10566000000E+00 0. -1.
        994   -1    0    0    0    0 -0.00000000000E+00 -0.00000000000E+00  0.11368683772E-12  0.17120000000E+03  0.17120000000E+03 0.  0.
         13    1    1    2    0    0  0.22723834802E+02  0.27698098391E+02  0.34450780086E+02  0.49703367443E+02  0.10566000000E+00 0. -1.
        994    1    1    2    0    0 -0.21264954044E+02 -0.24899365911E+02  0.19478867321E+02  0.17538826348E+03  0.17120000000E+03 0.  0.
        998    1    1    2    0    0 -0.14588807579E+01 -0.27987324800E+01  0.14460703489E+04  0.14461083691E+04  0.10000000000E+02 0. -1.
</event>
<event>
 5    1  0.9130022E-009  0.3856477E+03  0.7957747E-01  0.3426930E+00
         13   -1    0    0    0    0  0.00000000000E+00  0.00000000000E+00  0.14999999963E+04  0.15000000000E+04  0.10566000000E+00 0. -1.
        994   -1    0    0    0    0 -0.00000000000E+00 -0.00000000000E+00  0.11368683772E-12  0.17120000000E+03  0.17120000000E+03 0.  0.
         13    1    1    2    0    0 -0.10045684410E+02  0.77894806918E+01  0.61571563721E+02  0.62870186955E+02  0.10566000000E+00 0. -1.
        994    1    1    2    0    0  0.96740730891E+01 -0.35660613978E+01  0.16578749673E+01  0.17151820030E+03  0.17120000000E+03 0.  0.
        998    1    1    2    0    0  0.37161132057E+00 -0.42234192940E+01  0.14367705576E+04  0.14368116127E+04  0.10000000000E+02 0. -1.
</event>
<event>
 5    1  0.9130022E-009  0.3845228E+03  0.7957747E-01  0.3431699E+00
         13   -1    0    0    0    0  0.00000000000E+00  0.00000000000E+00  0.14999999963E+04  0.15000000000E+04  0.10566000000E+00 0. -1.
        994   -1    0    0    0    0 -0.00000000000E+00 -0.00000000000E+00  0.11368683772E-12  0.17120000000E+03  0.17120000000E+03 0.  0.
         13    1    1    2    0    0 -0.90456990435E+01 -0.14236043129E+02  0.71750825551E+02  0.73706727823E+02  0.10566000000E+00 0. -1.
        994    1    1    2    0    0  0.17263016240E+02  0.13044394318E+02  0.34107834994E+01  0.17259560075E+03  0.17120000000E+03 0.  0.
        998    1    1    2    0    0 -0.82173171967E+01  0.11916488109E+01  0.14248383872E+04  0.14248976714E+04  0.10000000000E+02 0. -1.
</event>
<event>
 5    1  0.9130022E-009  0.3731981E+03  0.7957747E-01  0.3481321E+00
         13   -1    0    0    0    0  0.00000000000E+00  0.00000000000E+00  0.14999999963E+04  0.15000000000E+04  0.10566000000E+00 0.  1.
        994   -1    0    0    0    0 -0.00000000000E+00 -0.00000000000E+00  0.11368683772E-12  0.17120000000E+03  0.17120000000E+03 0.  0.
         13    1    1    2    0    0 -0.94811436384E+02  0.30472625470E+02  0.29581374785E+03  0.31212749631E+03  0.10566000000E+00 0.  1.
        994    1    1    2    0    0  0.10026520835E+03 -0.35101255697E+02  0.53691978204E+02  0.20851253843E+03  0.17120000000E+03 0.  0.
        998    1    1    2    0    0 -0.54537719677E+01  0.46286302272E+01  0.11504942702E+04  0.11505599653E+04  0.10000000000E+02 0.  1.
</event>
<event>
 5    1  0.9130022E-009  0.3806724E+03  0.7957747E-01  0.3448236E+00
         13   -1    0    0    0    0  0.00000000000E+00  0.00000000000E+00  0.14999999963E+04  0.15000000000E+04  0.10566000000E+00 0.  1.
        994   -1    0    0    0    0 -0.00000000000E+00 -0.00000000000E+00  0.11368683772E-12  0.17120000000E+03  0.17120000000E+03 0.  0.
         13    1    1    2    0    0 -0.20716777525E+02  0.44484864994E+01  0.57042606113E+02  0.60850998179E+02  0.10566000000E+00 0.  1.
        994    1    1    2    0    0  0.14188799762E+02 -0.14596743814E+02  0.51775157509E+01  0.17248371992E+03  0.17120000000E+03 0.  0.
        998    1    1    2    0    0  0.65279777632E+01  0.10148257315E+02  0.14377798744E+04  0.14378652819E+04  0.10000000000E+02 0.  1.
</event>
<event>
 5    1  0.9130022E-009  0.3855818E+03  0.7957747E-01  0.3427208E+00
         13   -1    0    0    0    0  0.00000000000E+00  0.00000000000E+00  0.14999999963E+04  0.15000000000E+04  0.10566000000E+00 0.  1.
        994   -1    0    0    0    0 -0.00000000000E+00 -0.00000000000E+00  0.11368683772E-12  0.17120000000E+03  0.17120000000E+03 0.  0.
         13    1    1    2    0    0 -0.11633221358E+02 -0.97952807152E+01  0.84216033338E+02  0.85578214510E+02  0.10566000000E+00 0.  1.
        994    1    1    2    0    0  0.13751645079E+02  0.48427872778E+01  0.20395843982E+01  0.17183177889E+03  0.17120000000E+03 0.  0.
        998    1    1    2    0    0 -0.21184237212E+01  0.49524934374E+01  0.14137443785E+04  0.14137900066E+04  0.10000000000E+02 0.  1.
</event>
<event>
 5    1  0.9130022E-009  0.3908852E+03  0.7957747E-01  0.3405089E+00
         13   -1    0    0    0    0  0.00000000000E+00  0.00000000000E+00  0.14999999963E+04  0.15000000000E+04  0.10566000000E+00 0. -1.
        994   -1    0    0    0    0 -0.00000000000E+00 -0.00000000000E+00  0.11368683772E-12  0.17120000000E+03  0.17120000000E+03 0.  0.
         13    1    1    2    0    0 -0.11119343884E+03  0.78557490619E+02  0.36105925924E+03  0.38587440965E+03  0.10566000000E+00 0. -1.
        994    1    1    2    0    0  0.91580138969E+02 -0.51505340566E+02  0.65444957401E+02  0.21126335321E+03  0.17120000000E+03 0.  0.
        998    1    1    2    0    0  0.19613299873E+02 -0.27052150054E+02  0.10734957796E+04  0.10740622371E+04  0.10000000000E+02 0. -1.
</event>
<event>
 5    1  0.9130022E-009  0.3773651E+03  0.7957747E-01  0.3462712E+00
         13   -1    0    0    0    0  0.00000000000E+00  0.00000000000E+00  0.14999999963E+04  0.15000000000E+04  0.10566000000E+00 0. -1.
        994   -1    0    0    0    0 -0.00000000000E+00 -0.00000000000E+00  0.11368683772E-12  0.17120000000E+03  0.17120000000E+03 0.  0.
         13    1    1    2    0    0  0.14190773474E+02  0.30327831454E+01  0.17093269580E+02  0.22422463164E+02  0.10566000000E+00 0. -1.
        994    1    1    2    0    0 -0.55362880356E+01  0.45307953897E+00  0.55732316071E+01  0.17138073601E+03  0.17120000000E+03 0.  0.
        998    1    1    2    0    0 -0.86544854384E+01 -0.34858626844E+01  0.14773334951E+04  0.14773968008E+04  0.10000000000E+02 0. -1.
</event>
<event>
 5    1  0.9130022E-009  0.3816562E+03  0.7957747E-01  0.3443979E+00
         13   -1    0    0    0    0  0.00000000000E+00  0.00000000000E+00  0.14999999963E+04  0.15000000000E+04  0.10566000000E+00 0. -1.
        994   -1    0    0    0    0 -0.00000000000E+00 -0.00000000000E+00  0.11368683772E-12  0.17120000000E+03  0.17120000000E+03 0.  0.
         13    1    1    2    0    0 -0.98902676247E+01 -0.21359133508E+02  0.79932897918E+02  0.83326522258E+02  0.10566000000E+00 0. -1.
        994    1    1    2    0    0  0.89846085269E+01  0.19885957551E+02  0.48841995128E+01  0.17265419168E+03  0.17120000000E+03 0.  0.
        998    1    1    2    0    0  0.90565909782E+00  0.14731759571E+01  0.14151828988E+04  0.14152192861E+04  0.10000000000E+02 0. -1.
</event>
<event>
 5    1  0.9130022E-009  0.3826756E+03  0.7957747E-01  0.3439590E+00
         13   -1    0    0    0    0  0.00000000000E+00  0.00000000000E+00  0.14999999963E+04  0.15000000000E+04  0.10566000000E+00 0. -1.
        994   -1    0    0    0    0 -0.00000000000E+00 -0.00000000000E+00  0.11368683772E-12  0.17120000000E+03  0.17120000000E+03 0.  0.
         13    1    1    2    0    0 -0.94352068636E+01  0.18408986150E+02  0.66398417158E+02  0.69546206688E+02  0.10566000000E+00 0. -1.
        994    1    1    2    0    0 -0.11669872532E+02 -0.52050400672E+02  0.12275107749E+02  0.17973744297E+03  0.17120000000E+03 0.  0.
        998    1    1    2    0    0  0.21105079395E+02  0.33641414522E+02  0.14213264714E+04  0.14219163503E+04  0.10000000000E+02 0. -1.
</event>
<event>
 5    1  0.9130022E-009  0.3849594E+03  0.7957747E-01  0.3429844E+00
         13   -1    0    0    0    0  0.00000000000E+00  0.00000000000E+00  0.14999999963E+04  0.15000000000E+04  0.10566000000E+00 0. -1.
        994   -1    0    0    0    0 -0.00000000000E+00 -0.00000000000E+00  0.11368683772E-12  0.17120000000E+03  0.17120000000E+03 0.  0.
         13    1    1    2    0    0  0.12618576713E+02 -0.15283336078E+02  0.10657456946E+03  0.10840183974E+03  0.10566000000E+00 0. -1.
        994    1    1    2    0    0 -0.16396711461E+02  0.20828632259E+02  0.39648951139E+01  0.17328544215E+03  0.17120000000E+03 0.  0.
        998    1    1    2    0    0  0.37781347473E+01 -0.55452961806E+01  0.13894605317E+04  0.13895127181E+04  0.10000000000E+02 0. -1.
</event>
<event>
 5    1  0.9130022E-009  0.3831917E+03  0.7957747E-01  0.3437378E+00
         13   -1    0    0    0    0  0.00000000000E+00  0.00000000000E+00  0.14999999963E+04  0.15000000000E+04  0.10566000000E+00 0.  1.
        994   -1    0    0    0    0 -0.00000000000E+00 -0.00000000000E+00  0.11368683772E-12  0.17120000000E+03  0.17120000000E+03 0.  0.
         13    1    1    2    0    0 -0.99399993608E+01  0.28086752746E+01  0.19902926498E+02  0.22423868785E+02  0.10566000000E+00 0.  1.
        994    1    1    2    0    0  0.10618701634E+02 -0.39402026264E+01  0.29550690907E+01  0.17159969247E+03  0.17120000000E+03 0.  0.
        998    1    1    2    0    0 -0.67870227326E+00  0.11315273518E+01  0.14771420007E+04  0.14771764387E+04  0.10000000000E+02 0.  1.
</event>
<event>
 5    1  0.9130022E-009  0.3851657E+03  0.7957747E-01  0.3428970E+00
         13   -1    0    0    0    0  0.00000000000E+00  0.00000000000E+00  0.14999999963E+04  0.15000000000E+04  0.10566000000E+00 0. -1.
        994   -1    0    0    0    0 -0.00000000000E+00 -0.00000000000E+00  0.11368683772E-12  0.17120000000E+03  0.17120000000E+03 0.  0.
         13    1    1    2    0    0  0.69572253517E+01  0.92865236120E+01  0.41956253763E+02  0.43531378329E+02  0.10566000000E+00 0. -1.
        994    1    1    2    0    0 -0.33000744570E+01 -0.15793363404E+02  0.24040116976E+01  0.17197540548E+03  0.17120000000E+03 0.  0.
        998    1    1    2    0    0 -0.36571508947E+01  0.65068397923E+01  0.14556397308E+04  0.14556932162E+04  0.10000000000E+02 0. -1.
</event>
<event>
 5    1  0.9705240E-009  0.3854113E+03  0.7957747E-01  0.3427930E+00
         13   -1    0    0    0    0  0.00000000000E+00  0.00000000000E+00  0.14999999963E+04  0.15000000000E+04  0.10566000000E+00 0. -1.
        994   -1    0    0    0    0 -0.00000000000E+00 -0.00000000000E+00  0.11368683772E-12  0.17120000000E+03  0.17120000000E+03 0.  0.
         13    1    1    2    0    0 -0.11666900549E+02 -0.28138957772E+01  0.47551466841E+02  0.49042713430E+02  0.10566000000E+00 0. -1.
        994    1    1    2    0    0  0.18924636383E+02  0.30744368095E+01  0.26342941408E+01  0.17229037561E+03  0.17120000000E+03 0.  0.
        998    1    1    2    0    0 -0.72577358342E+01 -0.26054103231E+00  0.14498142353E+04  0.14498669110E+04  0.10000000000E+02 0. -1.
</event>
<event>
 5    1  0.9130022E-009  0.3863624E+03  0.7957747E-01  0.3423914E+00
         13   -1    0    0    0    0  0.00000000000E+00  0.00000000000E+00  0.14999999963E+04  0.15000000000E+04  0.10566000000E+00 0. -1.
        994   -1    0    0    0    0 -0.00000000000E+00 -0.00000000000E+00  0.11368683772E-12  0.17120000000E+03  0.17120000000E+03 0.  0.
         13    1    1    2    0    0  0.65001145332E+01 -0.83725244153E+01  0.56078184958E+02  0.57071224328E+02  0.10566000000E+00 0. -1.
        994    1    1    2    0    0  0.23582351108E+01  0.22459677750E+02  0.26268223739E+01  0.17270303585E+03  0.17120000000E+03 0.  0.
        998    1    1    2    0    0 -0.88583496439E+01 -0.14087153335E+02  0.14412949889E+04  0.14414257398E+04  0.10000000000E+02 0. -1.
</event>
<event>
 5    1  0.9130022E-009  0.3700906E+03  0.7957747E-01  0.3495475E+00
         13   -1    0    0    0    0  0.00000000000E+00  0.00000000000E+00  0.14999999963E+04  0.15000000000E+04  0.10566000000E+00 0.  1.
        994   -1    0    0    0    0 -0.00000000000E+00 -0.00000000000E+00  0.11368683772E-12  0.17120000000E+03  0.17120000000E+03 0.  0.
         13    1    1    2    0    0 -0.69661359627E+01  0.68084868419E+02  0.27711003810E+03  0.28543661422E+03  0.10566000000E+00 0.  1.
        994    1    1    2    0    0 -0.44144038052E+01  0.54833293480E+01  0.11160051512E+02  0.17170771856E+03  0.17120000000E+03 0.  0.
        998    1    1    2    0    0  0.11380539768E+02 -0.73568197767E+02  0.12117299067E+04  0.12140556672E+04  0.10000000000E+02 0.  1.
</event>
<event>
 5    1  0.9130022E-009  0.3760762E+03  0.7957747E-01  0.3468424E+00
         13   -1    0    0    0    0  0.00000000000E+00  0.00000000000E+00  0.14999999963E+04  0.15000000000E+04  0.10566000000E+00 0. -1.
        994   -1    0    0    0    0 -0.00000000000E+00 -0.00000000000E+00  0.11368683772E-12  0.17120000000E+03  0.17120000000E+03 0.  0.
         13    1    1    2    0    0 -0.46126770074E+02 -0.15222504662E+02  0.19600653903E+03  0.20193557901E+03  0.10566000000E+00 0. -1.
        994    1    1    2    0    0  0.24092959324E+02  0.21550842469E+01  0.81113733001E+01  0.17309058164E+03  0.17120000000E+03 0.  0.
        998    1    1    2    0    0  0.22033810750E+02  0.13067420415E+02  0.12958820840E+04  0.12961738393E+04  0.10000000000E+02 0. -1.
</event>
<event>
 5    1  0.9130022E-009  0.3850523E+03  0.7957747E-01  0.3429451E+00
         13   -1    0    0    0    0  0.00000000000E+00  0.00000000000E+00  0.14999999963E+04  0.15000000000E+04  0.10566000000E+00 0.  1.
        994   -1    0    0    0    0 -0.00000000000E+00 -0.00000000000E+00  0.11368683772E-12  0.17120000000E+03  0.17120000000E+03 0.  0.
         13    1    1    2    0    0  0.11229308489E+02  0.22947885218E+01  0.38745138357E+02  0.40404954323E+02  0.10566000000E+00 0.  1.
        994    1    1    2    0    0 -0.12074226536E+02 -0.36840066869E+02  0.65618077486E+01  0.17565726513E+03  0.17120000000E+03 0.  0.
        998    1    1    2    0    0  0.84491804705E+00  0.34545278348E+02  0.14546930502E+04  0.14551377805E+04  0.10000000000E+02 0.  1.
</event>
<event>
 5    1  0.9130022E-009  0.3853572E+03  0.7957747E-01  0.3428159E+00
         13   -1    0    0    0    0  0.00000000000E+00  0.00000000000E+00  0.14999999963E+04  0.15000000000E+04  0.10566000000E+00 0.  1.
        994   -1    0    0    0    0 -0.00000000000E+00 -0.00000000000E+00  0.11368683772E-12  0.17120000000E+03  0.17120000000E+03 0.  0.
         13    1    1    2    0    0  0.51287094673E+01  0.10003506950E+02  0.51300206256E+02  0.52517579324E+02  0.10566000000E+00 0.  1.
        994    1    1    2    0    0  0.53652378708E+01  0.18608318317E+02  0.26858717920E+01  0.17231282365E+03  0.17120000000E+03 0.  0.
        998    1    1    2    0    0 -0.10493947338E+02 -0.28611825267E+02  0.14460139182E+04  0.14463695970E+04  0.10000000000E+02 0.  1.
</event>
<event>
 5    1  0.9130022E-009  0.3826397E+03  0.7957747E-01  0.3439745E+00
         13   -1    0    0    0    0  0.00000000000E+00  0.00000000000E+00  0.14999999963E+04  0.15000000000E+04  0.10566000000E+00 0. -1.
        994   -1    0    0    0    0 -0.00000000000E+00 -0.00000000000E+00  0.11368683772E-12  0.17120000000E+03  0.17120000000E+03 0.  0.
         13    1    1    2    0    0 -0.30680975820E+02 -0.27534685804E+02  0.24915770080E+03  0.25254514890E+03  0.10566000000E+00 0. -1.
        994    1    1    2    0    0  0.33874553728E+02  0.27463891479E+02  0.91347129893E+01  0.17690289344E+03  0.17120000000E+03 0.  0.
        998    1    1    2    0    0 -0.31935779082E+01  0.70794324562E-01  0.12417075825E+04  0.12417519577E+04  0.10000000000E+02 0.  0.
</event>
<event>
 5    1  0.9130022E-009  0.3738439E+03  0.7957747E-01  0.3478410E+00
         13   -1    0    0    0    0  0.00000000000E+00  0.00000000000E+00  0.14999999963E+04  0.15000000000E+04  0.10566000000E+00 0. -1.
        994   -1    0    0    0    0 -0.00000000000E+00 -0.00000000000E+00  0.11368683772E-12  0.17120000000E+03  0.17120000000E+03 0.  0.
         13    1    1    2    0    0  0.80428335616E+02  0.72867347290E+02  0.64505776418E+03  0.65412376334E+03  0.10566000000E+00 0. -1.
        994    1    1    2    0    0 -0.65756694986E+02 -0.50500751737E+02  0.31107796013E+02  0.19274699436E+03  0.17120000000E+03 0.  0.
        998    1    1    2    0    0 -0.14671640630E+02 -0.22366595553E+02  0.82383443609E+03  0.82432924230E+03  0.10000000000E+02 0. -1.
</event>
<event>
 5    1  0.9130022E-009  0.3730928E+03  0.7957747E-01  0.3481796E+00
         13   -1    0    0    0    0  0.00000000000E+00  0.00000000000E+00  0.14999999963E+04  0.15000000000E+04  0.10566000000E+00 0. -1.
        994   -1    0    0    0    0 -0.00000000000E+00 -0.00000000000E+00  0.11368683772E-12  0.17120000000E+03  0.17120000000E+03 0.  0.
         13    1    1    2    0    0 -0.35889218190E+02 -0.81941292250E+02  0.42674251622E+03  0.43601788687E+03  0.10566000000E+00 0. -1.
        994    1    1    2    0    0 -0.24940765611E+02  0.25409690676E+02  0.17077274694E+02  0.17569509805E+03  0.17120000000E+03 0.  0.
        998    1    1    2    0    0  0.60829983801E+02  0.56531601575E+02  0.10561802054E+04  0.10594870151E+04  0.10000000000E+02 0.  1.
</event>
<event>
 5    1  0.9130022E-009  0.3739649E+03  0.7957747E-01  0.3477865E+00
         13   -1    0    0    0    0  0.00000000000E+00  0.00000000000E+00  0.14999999963E+04  0.15000000000E+04  0.10566000000E+00 0.  1.
        994   -1    0    0    0    0 -0.00000000000E+00 -0.00000000000E+00  0.11368683772E-12  0.17120000000E+03  0.17120000000E+03 0.  0.
         13    1    1    2    0    0 -0.86690213862E+01 -0.64127530200E+02  0.14966898430E+03  0.16305921651E+03  0.10566000000E+00 0.  1.
        994    1    1    2    0    0  0.75272699447E+01  0.50318132622E+02  0.22285295623E+02  0.17998513456E+03  0.17120000000E+03 0.  0.
        998    1    1    2    0    0  0.11417514416E+01  0.13809397578E+02  0.13280457164E+04  0.13281556489E+04  0.10000000000E+02 0.  1.
</event>
<event>
 5    1  0.9130022E-009  0.3843516E+03  0.7957747E-01  0.3432427E+00
         13   -1    0    0    0    0  0.00000000000E+00  0.00000000000E+00  0.14999999963E+04  0.15000000000E+04  0.10566000000E+00 0.  1.
        994   -1    0    0    0    0 -0.00000000000E+00 -0.00000000000E+00  0.11368683772E-12  0.17120000000E+03  0.17120000000E+03 0.  0.
         13    1    1    2    0    0  0.17011822830E+02  0.74623131493E+01  0.91239234717E+02  0.93111209579E+02  0.10566000000E+00 0.  1.
        994    1    1    2    0    0 -0.58621196643E+01 -0.35540942522E+01  0.21072898700E+01  0.17135015817E+03  0.17120000000E+03 0.  0.
        998    1    1    2    0    0 -0.11149703166E+02 -0.39082188970E+01  0.14066534717E+04  0.14067386323E+04  0.10000000000E+02 0.  1.
</event>
<event>
 5    1  0.9130022E-009  0.3717171E+03  0.7957747E-01  0.3488036E+00
         13   -1    0    0    0    0  0.00000000000E+00  0.00000000000E+00  0.14999999963E+04  0.15000000000E+04  0.10566000000E+00 0. -1.
        994   -1    0    0    0    0 -0.00000000000E+00 -0.00000000000E+00  0.11368683772E-12  0.17120000000E+03  0.17120000000E+03 0.  0.
         13    1    1    2    0    0  0.66327778658E+01 -0.54235446011E+02  0.13804263061E+03  0.14846297981E+03  0.10566000000E+00 0. -1.
        994    1    1    2    0    0  0.14296513996E+02  0.48692649424E+01  0.12652312517E+02  0.17232997727E+03  0.17120000000E+03 0.  0.
        998    1    1    2    0    0 -0.20929291862E+02  0.49366181069E+02  0.13493050532E+04  0.13504070429E+04  0.10000000000E+02 0. -1.
</event>
<event>
 5    1  0.9130022E-009  0.3821925E+03  0.7957747E-01  0.3441667E+00
         13   -1    0    0    0    0  0.00000000000E+00  0.00000000000E+00  0.14999999963E+04  0.15000000000E+04  0.10566000000E+00 0. -1.
        994   -1    0    0    0    0 -0.00000000000E+00 -0.00000000000E+00  0.11368683772E-12  0.17120000000E+03  0.17120000000E+03 0.  0.
         13    1    1    2    0    0  0.81996342272E+01 -0.75945924561E+01  0.19430660352E+02  0.22415922059E+02  0.10566000000E+00 0. -1.
        994    1    1    2    0    0 -0.37411879439E+01  0.71699791818E+01  0.32475694211E+01  0.17142167831E+03  0.17120000000E+03 0.  0.
        998    1    1    2    0    0 -0.44584462834E+01  0.42461327430E+00  0.14773217665E+04  0.14773623996E+04  0.10000000000E+02 0. -1.
</event>
<event>
 5    1  0.9130022E-009  0.3810724E+03  0.7957747E-01  0.3446502E+00
         13   -1    0    0    0    0  0.00000000000E+00  0.00000000000E+00  0.14999999963E+04  0.15000000000E+04  0.10566000000E+00 0. -1.
        994   -1    0    0    0    0 -0.00000000000E+00 -0.00000000000E+00  0.11368683772E-12  0.17120000000E+03  0.17120000000E+03 0.  0.
         13    1    1    2    0    0  0.89653134982E+01  0.14663845992E+02  0.37412716325E+02  0.41171928935E+02  0.10566000000E+00 0. -1.
        994    1    1    2    0    0 -0.18714758714E+02 -0.22435326213E+02  0.64413891168E+01  0.17379446927E+03  0.17120000000E+03 0.  0.
        998    1    1    2    0    0  0.97494452159E+01  0.77714802213E+01  0.14561458908E+04  0.14562336018E+04  0.10000000000E+02 0. -1.
</event>
<event>
 5    1  0.9130022E-009  0.3802449E+03  0.7957747E-01  0.3450093E+00
         13   -1    0    0    0    0  0.00000000000E+00  0.00000000000E+00  0.14999999963E+04  0.15000000000E+04  0.10566000000E+00 0.  1.
        994   -1    0    0    0    0 -0.00000000000E+00 -0.00000000000E+00  0.11368683772E-12  0.17120000000E+03  0.17120000000E+03 0.  0.
         13    1    1    2    0    0 -0.23358385061E+02 -0.43508328370E+02  0.24379375894E+03  0.24874484287E+03  0.10566000000E+00 0.  1.
        994    1    1    2    0    0  0.31141801256E+02  0.45752259234E+02  0.14309541068E+02  0.18049178368E+03  0.17120000000E+03 0.  0.
        998    1    1    2    0    0 -0.77834161952E+01 -0.22439308641E+01  0.12418966963E+04  0.12419633735E+04  0.10000000000E+02 0.  1.
</event>
<event>
 5    1  0.9130022E-009  0.3843951E+03  0.7957747E-01  0.3432242E+00
         13   -1    0    0    0    0  0.00000000000E+00  0.00000000000E+00  0.14999999963E+04  0.15000000000E+04  0.10566000000E+00 0. -1.
        994   -1    0    0    0    0 -0.00000000000E+00 -0.00000000000E+00  0.11368683772E-12  0.17120000000E+03  0.17120000000E+03 0.  0.
         13    1    1    2    0    0 -0.22842073930E+02 -0.19016041728E+01  0.13324754187E+03  0.13520464126E+03  0.10566000000E+00 0. -1.
        994    1    1    2    0    0  0.16931349404E+02 -0.56563365846E+01  0.29814920719E+01  0.17215398349E+03  0.17120000000E+03 0.  0.
        998    1    1    2    0    0  0.59107245263E+01  0.75579407574E+01  0.13637709623E+04  0.13638413752E+04  0.10000000000E+02 0. -1.
</event>
<event>
 5    1  0.9130022E-009  0.3790022E+03  0.7957747E-01  0.3455515E+00
         13   -1    0    0    0    0  0.00000000000E+00  0.00000000000E+00  0.14999999963E+04  0.15000000000E+04  0.10566000000E+00 0.  1.
        994   -1    0    0    0    0 -0.00000000000E+00 -0.00000000000E+00  0.11368683772E-12  0.17120000000E+03  0.17120000000E+03 0.  0.
         13    1    1    2    0    0 -0.10347978533E+02  0.23028919596E+02  0.69321899157E+02  0.73776342172E+02  0.10566000000E+00 0.  1.
        994    1    1    2    0    0 -0.53790405448E+01 -0.11037861627E+02  0.51435023121E+01  0.17171681363E+03  0.17120000000E+03 0.  0.
        998    1    1    2    0    0  0.15727019078E+02 -0.11991057970E+02  0.14255345948E+04  0.14257068442E+04  0.10000000000E+02 0.  1.
</event>
<event>
 5    1  0.9130022E-009  0.3688836E+03  0.7957747E-01  0.3501037E+00
         13   -1    0    0    0    0  0.00000000000E+00  0.00000000000E+00  0.14999999963E+04  0.15000000000E+04  0.10566000000E+00 0. -1.
        994   -1    0    0    0    0 -0.00000000000E+00 -0.00000000000E+00  0.11368683772E-12  0.17120000000E+03  0.17120000000E+03 0.  0.
         13    1    1    2    0    0 -0.18208561132E+02  0.20001385587E+01  0.12561295170E+02  0.22211473458E+02  0.10566000000E+00 0. -1.
        994    1    1    2    0    0  0.17624984059E+02 -0.32056084513E+01  0.10968450907E+02  0.17248380476E+03  0.17120000000E+03 0.  0.
        998    1    1    2    0    0  0.58357707325E+00  0.12054698926E+01  0.14764702502E+04  0.14765047218E+04  0.10000000000E+02 0. -1.
</event>
<event>
 5    1  0.9130022E-009  0.3836564E+03  0.7957747E-01  0.3435391E+00
         13   -1    0    0    0    0  0.00000000000E+00  0.00000000000E+00  0.14999999963E+04  0.15000000000E+04  0.10566000000E+00 0.  1.
        994   -1    0    0    0    0 -0.00000000000E+00 -0.00000000000E+00  0.11368683772E-12  0.17120000000E+03  0.17120000000E+03 0.  0.
         13    1    1    2    0    0 -0.16487025609E+02 -0.24368393289E+01  0.59860316634E+02  0.62137177848E+02  0.10566000000E+00 0.  1.
        994    1    1    2    0    0  0.85091477258E+01  0.18451348127E+02  0.36635608766E+01  0.17244048110E+03  0.17120000000E+03 0.  0.
        998    1    1    2    0    0  0.79778778828E+01 -0.16014508798E+02  0.14364761188E+04  0.14366223411E+04  0.10000000000E+02 0.  1.
</event>
<event>
 5    1  0.9130022E-009  0.3775569E+03  0.7957747E-01  0.3461866E+00
         13   -1    0    0    0    0  0.00000000000E+00  0.00000000000E+00  0.14999999963E+04  0.15000000000E+04  0.10566000000E+00 0.  1.
        994   -1    0    0    0    0 -0.00000000000E+00 -0.00000000000E+00  0.11368683772E-12  0.17120000000E+03  0.17120000000E+03 0.  0.
         13    1    1    2    0    0  0.89087172125E+01 -0.12009803188E+02  0.18431971906E+02  0.23734981933E+02  0.10566000000E+00 0.  1.
        994    1    1    2    0    0 -0.60273968203E+01  0.10813347219E+02  0.58881660831E+01  0.17174797958E+03  0.17120000000E+03 0.  0.
        998    1    1    2    0    0 -0.28813203922E+01  0.11964559688E+01  0.14756798583E+04  0.14757170385E+04  0.10000000000E+02 0.  1.
</event>
<event>
 5    1  0.9130022E-009  0.3794411E+03  0.7957747E-01  0.3453595E+00
         13   -1    0    0    0    0  0.00000000000E+00  0.00000000000E+00  0.14999999963E+04  0.15000000000E+04  0.10566000000E+00 0. -1.
        994   -1    0    0    0    0 -0.00000000000E+00 -0.00000000000E+00  0.11368683772E-12  0.17120000000E+03  0.17120000000E+03 0.  0.
         13    1    1    2    0    0 -0.26864937990E+02  0.32369373640E+02  0.17982980308E+03  0.18468424536E+03  0.10566000000E+00 0. -1.
        994    1    1    2    0    0  0.24213367481E+02 -0.31211858535E+02  0.96594521730E+01  0.17596366754E+03  0.17120000000E+03 0.  0.
        998    1    1    2    0    0  0.26515705095E+01 -0.11575151053E+01  0.13105107410E+04  0.13105520871E+04  0.10000000000E+02 0. -1.
</event>
<event>
 5    1  0.9130022E-009  0.3845519E+03  0.7957747E-01  0.3431575E+00
         13   -1    0    0    0    0  0.00000000000E+00  0.00000000000E+00  0.14999999963E+04  0.15000000000E+04  0.10566000000E+00 0.  1.
        994   -1    0    0    0    0 -0.00000000000E+00 -0.00000000000E+00  0.11368683772E-12  0.17120000000E+03  0.17120000000E+03 0.  0.
         13    1    1    2    0    0  0.17281860813E+02  0.11691076619E+02  0.11810699567E+03  0.11993588944E+03  0.10566000000E+00 0.  1.
        994    1    1    2    0    0 -0.15213851753E+02  0.54664483206E+00  0.26164283927E+01  0.17189545021E+03  0.17120000000E+03 0.  0.
        998    1    1    2    0    0 -0.20680090600E+01 -0.12237721451E+02  0.13792765722E+04  0.13793686603E+04  0.10000000000E+02 0.  1.
</event>
<event>
 5    1  0.9130022E-009  0.3805761E+03  0.7957747E-01  0.3448654E+00
         13   -1    0    0    0    0  0.00000000000E+00  0.00000000000E+00  0.14999999963E+04  0.15000000000E+04  0.10566000000E+00 0. -1.
        994   -1    0    0    0    0 -0.00000000000E+00 -0.00000000000E+00  0.11368683772E-12  0.17120000000E+03  0.17120000000E+03 0.  0.
         13    1    1    2    0    0 -0.17319778606E+02 -0.28554061537E+02  0.11088517674E+03  0.11580519308E+03  0.10566000000E+00 0. -1.
        994    1    1    2    0    0  0.32102609357E+02  0.59936720795E+02  0.19424629174E+02  0.18522889690E+03  0.17120000000E+03 0.  0.
        998    1    1    2    0    0 -0.14782830751E+02 -0.31382659258E+02  0.13696901904E+04  0.13701659100E+04  0.10000000000E+02 0. -1.
</event>
<event>
 5    1  0.9130022E-009  0.3855442E+03  0.7957747E-01  0.3427367E+00
         13   -1    0    0    0    0  0.00000000000E+00  0.00000000000E+00  0.14999999963E+04  0.15000000000E+04  0.10566000000E+00 0.  1.
        994   -1    0    0    0    0 -0.00000000000E+00 -0.00000000000E+00  0.11368683772E-12  0.17120000000E+03  0.17120000000E+03 0.  0.
         13    1    1    2    0    0  0.88945722309E+01  0.65637769081E+01  0.45284841576E+02  0.46614639579E+02  0.10566000000E+00 0.  1.
        994    1    1    2    0    0 -0.88725889468E+01  0.49068015910E+00  0.16194385566E+01  0.17143811182E+03  0.17120000000E+03 0.  0.
        998    1    1    2    0    0 -0.21983284078E-01 -0.70544570672E+01  0.14530957161E+04  0.14531472486E+04  0.10000000000E+02 0.  1.
</event>
<event>
 5    1  0.9130022E-009  0.3838278E+03  0.7957747E-01  0.3434659E+00
         13   -1    0    0    0    0  0.00000000000E+00  0.00000000000E+00  0.14999999963E+04  0.15000000000E+04  0.10566000000E+00 0. -1.
        994   -1    0    0    0    0 -0.00000000000E+00 -0.00000000000E+00  0.11368683772E-12  0.17120000000E+03  0.17120000000E+03 0.  0.
         13    1    1    2    0    0  0.46652730234E+01  0.11368990497E+02  0.33170273798E+02  0.35373675878E+02  0.10566000000E+00 0. -1.
        994    1    1    2    0    0 -0.14575314045E+01 -0.11068668124E+02  0.26248001814E+01  0.17158370956E+03  0.17120000000E+03 0.  0.
        998    1    1    2    0    0 -0.32077416189E+01 -0.30032237208E+00  0.14642049223E+04  0.14642426146E+04  0.10000000000E+02 0. -1.
</event>
<event>
 5    1  0.9130022E-009  0.3776273E+03  0.7957747E-01  0.3461555E+00
         13   -1    0    0    0    0  0.00000000000E+00  0.00000000000E+00  0.14999999963E+04  0.15000000000E+04  0.10566000000E+00 0.  1.
        994   -1    0    0    0    0 -0.00000000000E+00 -0.00000000000E+00  0.11368683772E-12  0.17120000000E+03  0.17120000000E+03 0.  0.
         13    1    1    2    0    0  0.60388111575E+02 -0.67962799983E+01  0.11926714495E+03  0.13385655184E+03  0.10566000000E+00 0.  1.
        994    1    1    2    0    0 -0.35912740782E+02  0.30810600237E+01  0.19711474556E+02  0.17606021729E+03  0.17120000000E+03 0.  0.
        998    1    1    2    0    0 -0.24475370793E+02  0.37152199745E+01  0.13610213768E+04  0.13612832309E+04  0.10000000000E+02 0.  1.
</event>
<event>
 5    1  0.9130022E-009  0.3747060E+03  0.7957747E-01  0.3474539E+00
         13   -1    0    0    0    0  0.00000000000E+00  0.00000000000E+00  0.14999999963E+04  0.15000000000E+04  0.10566000000E+00 0. -1.
        994   -1    0    0    0    0 -0.00000000000E+00 -0.00000000000E+00  0.11368683772E-12  0.17120000000E+03  0.17120000000E+03 0.  0.
         13    1    1    2    0    0  0.54893637806E+02 -0.33059021249E+01  0.98626359029E+02  0.11292214273E+03  0.10566000000E+00 0. -1.
        994    1    1    2    0    0 -0.61966653817E+02  0.85767094577E+01  0.27493817912E+02  0.18433332893E+03  0.17120000000E+03 0.  0.
        998    1    1    2    0    0  0.70730160106E+01 -0.52708073328E+01  0.13738798193E+04  0.13739445283E+04  0.10000000000E+02 0. -1.
</event>
<event>
 5    1  0.9130022E-009  0.3819892E+03  0.7957747E-01  0.3442542E+00
         13   -1    0    0    0    0  0.00000000000E+00  0.00000000000E+00  0.14999999963E+04  0.15000000000E+04  0.10566000000E+00 0.  1.
        994   -1    0    0    0    0 -0.00000000000E+00 -0.00000000000E+00  0.11368683772E-12  0.17120000000E+03  0.17120000000E+03 0.  0.
         13    1    1    2    0    0 -0.22491037942E+02 -0.15555441519E-01  0.75394024647E+02  0.78677297527E+02  0.10566000000E+00 0.  1.
        994    1    1    2    0    0  0.25275434037E+02 -0.27601206197E+01  0.52822748231E+01  0.17315833292E+03  0.17120000000E+03 0.  0.
        998    1    1    2    0    0 -0.27843960946E+01  0.27756760612E+01  0.14193236968E+04  0.14193643696E+04  0.10000000000E+02 0.  1.
</event>
<event>
 5    1  0.9130022E-009  0.3801153E+03  0.7957747E-01  0.3450657E+00
         13   -1    0    0    0    0  0.00000000000E+00  0.00000000000E+00  0.14999999963E+04  0.15000000000E+04  0.10566000000E+00 0.  1.
        994   -1    0    0    0    0 -0.00000000000E+00 -0.00000000000E+00  0.11368683772E-12  0.17120000000E+03  0.17120000000E+03 0.  0.
         13    1    1    2    0    0  0.20740551482E+02  0.21656496922E+02  0.10967355696E+03  0.11369905275E+03  0.10566000000E+00 0.  1.
        994    1    1    2    0    0 -0.87491221182E+01 -0.14981927190E+02  0.50814348999E+01  0.17215186976E+03  0.17120000000E+03 0.  0.
        998    1    1    2    0    0 -0.11991429364E+02 -0.66745697317E+01  0.13852450044E+04  0.13853490775E+04  0.10000000000E+02 0.  1.
</event>
<event>
 5    1  0.9130022E-009  0.3835026E+03  0.7957747E-01  0.3436048E+00
         13   -1    0    0    0    0  0.00000000000E+00  0.00000000000E+00  0.14999999963E+04  0.15000000000E+04  0.10566000000E+00 0.  1.
        994   -1    0    0    0    0 -0.00000000000E+00 -0.00000000000E+00  0.11368683772E-12  0.17120000000E+03  0.17120000000E+03 0.  0.
         13    1    1    2    0    0 -0.21599746291E+02  0.19208230023E+02  0.17487810414E+03  0.17725086068E+03  0.10566000000E+00 0.  1.
        994    1    1    2    0    0  0.13075596603E+02 -0.11418407756E+02  0.33719177997E+01  0.17211089766E+03  0.17120000000E+03 0.  0.
        998    1    1    2    0    0  0.85241496886E+01 -0.77898222668E+01  0.13217499743E+04  0.13218382417E+04  0.10000000000E+02 0.  1.
</event>
<event>
 5    1  0.9130022E-009  0.3748149E+03  0.7957747E-01  0.3474051E+00
         13   -1    0    0    0    0  0.00000000000E+00  0.00000000000E+00  0.14999999963E+04  0.15000000000E+04  0.10566000000E+00 0.  1.
        994   -1    0    0    0    0 -0.00000000000E+00 -0.00000000000E+00  0.11368683772E-12  0.17120000000E+03  0.17120000000E+03 0.  0.
         13    1    1    2    0    0  0.26305697045E+02  0.14078505043E+02  0.60491891608E+02  0.67449789589E+02  0.10566000000E+00 0.  1.
        994    1    1    2    0    0 -0.32330523508E+02 -0.71079961103E+01  0.10509978882E+02  0.17468739512E+03  0.17120000000E+03 0.  0.
        998    1    1    2    0    0  0.60248264629E+01 -0.69705089324E+01  0.14289981258E+04  0.14290628153E+04  0.10000000000E+02 0.  1.
</event>
<event>
 5    1  0.9130022E-009  0.3763661E+03  0.7957747E-01  0.3467136E+00
         13   -1    0    0    0    0  0.00000000000E+00  0.00000000000E+00  0.14999999963E+04  0.15000000000E+04  0.10566000000E+00 0.  1.
        994   -1    0    0    0    0 -0.00000000000E+00 -0.00000000000E+00  0.11368683772E-12  0.17120000000E+03  0.17120000000E+03 0.  0.
         13    1    1    2    0    0  0.24813358387E+02  0.35137928912E+02  0.14216995520E+03  0.14853512759E+03  0.10566000000E+00 0.  1.
        994    1    1    2    0    0 -0.15785199203E+02 -0.36853756302E+02  0.11437005191E+02  0.17620333980E+03  0.17120000000E+03 0.  0.
        998    1    1    2    0    0 -0.90281591841E+01  0.17158273897E+01  0.13463930359E+04  0.13464615326E+04  0.10000000000E+02 0.  1.
</event>
<event>
 5    1  0.9130022E-009  0.3850751E+03  0.7957747E-01  0.3429354E+00
         13   -1    0    0    0    0  0.00000000000E+00  0.00000000000E+00  0.14999999963E+04  0.15000000000E+04  0.10566000000E+00 0. -1.
        994   -1    0    0    0    0 -0.00000000000E+00 -0.00000000000E+00  0.11368683772E-12  0.17120000000E+03  0.17120000000E+03 0.  0.
         13    1    1    2    0    0 -0.11537689556E+02  0.68808473704E+01  0.54894470903E+02  0.56514409141E+02  0.10566000000E+00 0. -1.
        994    1    1    2    0    0  0.15845971756E+02 -0.15456664579E+01  0.24267352599E+01  0.17195584593E+03  0.17120000000E+03 0.  0.
        998    1    1    2    0    0 -0.43082822000E+01 -0.53351809126E+01  0.14426787901E+04  0.14427297449E+04  0.10000000000E+02 0. -1.
</event>
<event>
 5    1  0.9130022E-009  0.3748720E+03  0.7957747E-01  0.3473795E+00
         13   -1    0    0    0    0  0.00000000000E+00  0.00000000000E+00  0.14999999963E+04  0.15000000000E+04  0.10566000000E+00 0. -1.
        994   -1    0    0    0    0 -0.00000000000E+00 -0.00000000000E+00  0.11368683772E-12  0.17120000000E+03  0.17120000000E+03 0.  0.
         13    1    1    2    0    0 -0.35038990803E+02 -0.21559410014E+02  0.12204111321E+03  0.12878891068E+03  0.10566000000E+00 0. -1.
        994    1    1    2    0    0  0.20300094327E+02  0.17985272488E+02  0.92499235575E+01  0.17358158008E+03  0.17120000000E+03 0.  0.
        998    1    1    2    0    0  0.14738896476E+02  0.35741375256E+01  0.13687089595E+04  0.13688295092E+04  0.10000000000E+02 0. -1.
</event>
<event>
 5    1  0.9130022E-009  0.3842620E+03  0.7957747E-01  0.3432808E+00
         13   -1    0    0    0    0  0.00000000000E+00  0.00000000000E+00  0.14999999963E+04  0.15000000000E+04  0.10566000000E+00 0. -1.
        994   -1    0    0    0    0 -0.00000000000E+00 -0.00000000000E+00  0.11368683772E-12  0.17120000000E+03  0.17120000000E+03 0.  0.
         13    1    1    2    0    0  0.12794523393E+02  0.14487634480E+02  0.91196985233E+02  0.93222811915E+02  0.10566000000E+00 0. -1.
        994    1    1    2    0    0 -0.45083951888E+01 -0.16811475527E+02  0.29963266007E+01  0.17210859743E+03  0.17120000000E+03 0.  0.
        998    1    1    2    0    0 -0.82861282044E+01  0.23238410467E+01  0.14058066844E+04  0.14058685907E+04  0.10000000000E+02 0. -1.
</event>
<event>
 5    1  0.9130022E-009  0.3753793E+03  0.7957747E-01  0.3471528E+00
         13   -1    0    0    0    0  0.00000000000E+00  0.00000000000E+00  0.14999999963E+04  0.15000000000E+04  0.10566000000E+00 0. -1.
        994   -1    0    0    0    0 -0.00000000000E+00 -0.00000000000E+00  0.11368683772E-12  0.17120000000E+03  0.17120000000E+03 0.  0.
         13    1    1    2    0    0  0.37356400888E+02  0.20400372811E+02  0.13458882375E+03  0.14115891237E+03  0.10566000000E+00 0. -1.
        994    1    1    2    0    0 -0.25225659758E+02 -0.15726632029E+02  0.94898430564E+01  0.17402056771E+03  0.17120000000E+03 0.  0.
        998    1    1    2    0    0 -0.12130741130E+02 -0.46737407813E+01  0.13559213295E+04  0.13560205199E+04  0.10000000000E+02 0. -1.
</event>
<event>
 5    1  0.9130022E-009  0.3839336E+03  0.7957747E-01  0.3434208E+00
         13   -1    0    0    0    0  0.00000000000E+00  0.00000000000E+00  0.14999999963E+04  0.15000000000E+04  0.10566000000E+00 0. -1.
        994   -1    0    0    0    0 -0.00000000000E+00 -0.00000000000E+00  0.11368683772E-12  0.17120000000E+03  0.17120000000E+03 0.  0.
         13    1    1    2    0    0  0.40250734529E+01 -0.21794058745E+02  0.10658596837E+03  0.10886579826E+03  0.10566000000E+00 0. -1.
        994    1    1    2    0    0  0.15340115063E+01  0.23048852095E+02  0.39234345300E+01  0.17279593778E+03  0.17120000000E+03 0.  0.
        998    1    1    2    0    0 -0.55590849592E+01 -0.12547933506E+01  0.13894905934E+04  0.13895382640E+04  0.10000000000E+02 0.  0.
</event>
<event>
 5    1  0.9130022E-009  0.3804784E+03  0.7957747E-01  0.3449078E+00
         13   -1    0    0    0    0  0.00000000000E+00  0.00000000000E+00  0.14999999963E+04  0.15000000000E+04  0.10566000000E+00 0. -1.
        994   -1    0    0    0    0 -0.00000000000E+00 -0.00000000000E+00  0.11368683772E-12  0.17120000000E+03  0.17120000000E+03 0.  0.
         13    1    1    2    0    0  0.18900780242E+02 -0.25512889296E+01  0.48359284969E+02  0.51984422433E+02  0.10566000000E+00 0. -1.
        994    1    1    2    0    0  0.40886974950E+01 -0.49901544778E+01  0.40307640545E+01  0.17136891827E+03  0.17120000000E+03 0.  0.
        998    1    1    2    0    0 -0.22989477737E+02  0.75414434074E+01  0.14476099473E+04  0.14478466593E+04  0.10000000000E+02 0. -1.
</event>
<event>
 5    1  0.9130022E-009  0.3846038E+03  0.7957747E-01  0.3431354E+00
         13   -1    0    0    0    0  0.00000000000E+00  0.00000000000E+00  0.14999999963E+04  0.15000000000E+04  0.10566000000E+00 0. -1.
        994   -1    0    0    0    0 -0.00000000000E+00 -0.00000000000E+00  0.11368683772E-12  0.17120000000E+03  0.17120000000E+03 0.  0.
         13    1    1    2    0    0 -0.40350471908E+01 -0.17162924808E+02  0.86589754890E+02  0.88366534445E+02  0.10566000000E+00 0. -1.
        994    1    1    2    0    0  0.73437989707E+01  0.70593335691E+01  0.21687479209E+01  0.17151649787E+03  0.17120000000E+03 0.  0.
        998    1    1    2    0    0 -0.33087517799E+01  0.10103591239E+02  0.14112414935E+04  0.14113169677E+04  0.10000000000E+02 0. -1.
</event>
<event>
 5    1  0.9130022E-009  0.3876538E+03  0.7957747E-01  0.3418494E+00
         13   -1    0    0    0    0  0.00000000000E+00  0.00000000000E+00  0.14999999963E+04  0.15000000000E+04  0.10566000000E+00 0. -1.
        994   -1    0    0    0    0 -0.00000000000E+00 -0.00000000000E+00  0.11368683772E-12  0.17120000000E+03  0.17120000000E+03 0.  0.
         13    1    1    2    0    0 -0.44789394426E+02 -0.14435097998E+03  0.35197091382E+03  0.38304938404E+03  0.10566000000E+00 0. -1.
        994    1    1    2    0    0  0.78095710674E+02  0.15308677466E+03  0.14119380857E+03  0.28067709593E+03  0.17120000000E+03 0.  0.
        998    1    1    2    0    0 -0.33306316248E+02 -0.87357946812E+01  0.10068352739E+04  0.10074735200E+04  0.10000000000E+02 0. -1.
</event>
<event>
 5    1  0.9130022E-009  0.3750314E+03  0.7957747E-01  0.3473082E+00
         13   -1    0    0    0    0  0.00000000000E+00  0.00000000000E+00  0.14999999963E+04  0.15000000000E+04  0.10566000000E+00 0.  1.
        994   -1    0    0    0    0 -0.00000000000E+00 -0.00000000000E+00  0.11368683772E-12  0.17120000000E+03  0.17120000000E+03 0.  0.
         13    1    1    2    0    0  0.92650194862E+02 -0.12190250228E+02  0.42325544473E+03  0.43344877837E+03  0.10566000000E+00 0.  1.
        994    1    1    2    0    0 -0.99761186371E+02  0.32655262110E+02  0.45086972445E+02  0.20581772405E+03  0.17120000000E+03 0.  0.
        998    1    1    2    0    0  0.71109915091E+01 -0.20465011882E+02  0.10316575791E+04  0.10319334976E+04  0.10000000000E+02 0.  1.
</event>
<event>
 5    1  0.9130022E-009  0.3712602E+03  0.7957747E-01  0.3490119E+00
         13   -1    0    0    0    0  0.00000000000E+00  0.00000000000E+00  0.14999999963E+04  0.15000000000E+04  0.10566000000E+00 0.  1.
        994   -1    0    0    0    0 -0.00000000000E+00 -0.00000000000E+00  0.11368683772E-12  0.17120000000E+03  0.17120000000E+03 0.  0.
         13    1    1    2    0    0 -0.23499132179E+02  0.81978016842E+02  0.47655612731E+03  0.48412638650E+03  0.10566000000E+00 0.  1.
        994    1    1    2    0    0 -0.38236569724E+02 -0.13864852544E+02  0.17438175813E+02  0.17682703237E+03  0.17120000000E+03 0.  0.
        998    1    1    2    0    0  0.61735701904E+02 -0.68113164298E+02  0.10060056932E+04  0.10102465811E+04  0.10000000000E+02 0. -1.
</event>
<event>
 5    1  0.9130022E-009  0.3727442E+03  0.7957747E-01  0.3483373E+00
         13   -1    0    0    0    0  0.00000000000E+00  0.00000000000E+00  0.14999999963E+04  0.15000000000E+04  0.10566000000E+00 0.  1.
        994   -1    0    0    0    0 -0.00000000000E+00 -0.00000000000E+00  0.11368683772E-12  0.17120000000E+03  0.17120000000E+03 0.  0.
         13    1    1    2    0    0  0.83980515911E+02  0.94777912079E+02  0.67978811176E+03  0.69148208055E+03  0.10566000000E+00 0.  1.
        994    1    1    2    0    0 -0.53166393989E+02 -0.10138853492E+03  0.54160433982E+02  0.21295326500E+03  0.17120000000E+03 0.  0.
        998    1    1    2    0    0 -0.30814121922E+02  0.66106228457E+01  0.76605145054E+03  0.76676465445E+03  0.10000000000E+02 0.  1.
</event>
<event>
 5    1  0.9130022E-009  0.3709176E+03  0.7957747E-01  0.3491684E+00
         13   -1    0    0    0    0  0.00000000000E+00  0.00000000000E+00  0.14999999963E+04  0.15000000000E+04  0.10566000000E+00 0. -1.
        994   -1    0    0    0    0 -0.00000000000E+00 -0.00000000000E+00  0.11368683772E-12  0.17120000000E+03  0.17120000000E+03 0.  0.
         13    1    1    2    0    0  0.47144895428E+01  0.17384345527E+02  0.14933941863E+02  0.23398197893E+02  0.10566000000E+00 0. -1.
        994    1    1    2    0    0  0.24757672315E+02 -0.95399064030E+01  0.11220394581E+02  0.17360670899E+03  0.17120000000E+03 0.  0.
        998    1    1    2    0    0 -0.29472161858E+02 -0.78444391241E+01  0.14738456598E+04  0.14741950931E+04  0.10000000000E+02 0. -1.
</event>
<event>
 5    1  0.1347751E-008  0.3865274E+03  0.7957747E-01  0.3423220E+00
         13   -1    0    0    0    0  0.00000000000E+00  0.00000000000E+00  0.14999999963E+04  0.15000000000E+04  0.10566000000E+00 0.  1.
        994   -1    0    0    0    0 -0.00000000000E+00 -0.00000000000E+00  0.11368683772E-12  0.17120000000E+03  0.17120000000E+03 0.  0.
         13    1    1    2    0    0  0.18965179211E+01 -0.10044774939E+02  0.60205949623E+02  0.61067682271E+02  0.10566000000E+00 0.  1.
        994    1    1    2    0    0 -0.43855990815E+00  0.88371517726E+01  0.11299435932E+01  0.17143221506E+03  0.17120000000E+03 0.  0.
        998    1    1    2    0    0 -0.14579580129E+01  0.12076231668E+01  0.14386641031E+04  0.14387001027E+04  0.10000000000E+02 0.  1.
</event>
<event>
 5    1  0.9130022E-009  0.3771518E+03  0.7957747E-01  0.3463655E+00
         13   -1    0    0    0    0  0.00000000000E+00  0.00000000000E+00  0.14999999963E+04  0.15000000000E+04  0.10566000000E+00 0. -1.
        994   -1    0    0    0    0 -0.00000000000E+00 -0.00000000000E+00  0.11368683772E-12  0.17120000000E+03  0.17120000000E+03 0.  0.
         13    1    1    2    0    0  0.30606119073E+02  0.10161038317E+02  0.96307383610E+02  0.10156330305E+03  0.10566000000E+00 0. -1.
        994    1    1    2    0    0 -0.34552375566E+01 -0.14256590602E+02  0.63043709064E+01  0.17194293860E+03  0.17120000000E+03 0.  0.
        998    1    1    2    0    0 -0.27150881516E+02  0.40955522853E+01  0.13973882418E+04  0.13976937583E+04  0.10000000000E+02 0. -1.
</event>
<event>
 5    1  0.9130022E-009  0.3695411E+03  0.7957747E-01  0.3498003E+00
         13   -1    0    0    0    0  0.00000000000E+00  0.00000000000E+00  0.14999999963E+04  0.15000000000E+04  0.10566000000E+00 0. -1.
        994   -1    0    0    0    0 -0.00000000000E+00 -0.00000000000E+00  0.11368683772E-12  0.17120000000E+03  0.17120000000E+03 0.  0.
         13    1    1    2    0    0  0.15499920703E+03 -0.30353314158E+02  0.63154688157E+03  0.65099735226E+03  0.10566000000E+00 0. -1.
        994    1    1    2    0    0 -0.15227799017E+03  0.29555066322E+02  0.10009590615E+03  0.25177513512E+03  0.17120000000E+03 0.  0.
        998    1    1    2    0    0 -0.27212168599E+01  0.79824783528E+00  0.76835720855E+03  0.76842751262E+03  0.10000000000E+02 0.  0.
</event>
<event>
 5    1  0.9130022E-009  0.3828771E+03  0.7957747E-01  0.3438726E+00
         13   -1    0    0    0    0  0.00000000000E+00  0.00000000000E+00  0.14999999963E+04  0.15000000000E+04  0.10566000000E+00 0.  1.
        994   -1    0    0    0    0 -0.00000000000E+00 -0.00000000000E+00  0.11368683772E-12  0.17120000000E+03  0.17120000000E+03 0.  0.
         13    1    1    2    0    0  0.10508506435E+02 -0.11908905382E+02  0.41148021469E+02  0.44106933352E+02  0.10566000000E+00 0.  1.
        994    1    1    2    0    0 -0.25164256159E+02  0.28947972972E+02  0.75750194038E+01  0.17560764746E+03  0.17120000000E+03 0.  0.
        998    1    1    2    0    0  0.14655749724E+02 -0.17039067590E+02  0.14512769554E+04  0.14514854192E+04  0.10000000000E+02 0.  1.
</event>
<event>
 5    1  0.9130022E-009  0.3823469E+03  0.7957747E-01  0.3441003E+00
         13   -1    0    0    0    0  0.00000000000E+00  0.00000000000E+00  0.14999999963E+04  0.15000000000E+04  0.10566000000E+00 0. -1.
        994   -1    0    0    0    0 -0.00000000000E+00 -0.00000000000E+00  0.11368683772E-12  0.17120000000E+03  0.17120000000E+03 0.  0.
         13    1    1    2    0    0  0.12348161757E+01 -0.10328493724E+02  0.17122743598E+02  0.20035020987E+02  0.10566000000E+00 0. -1.
        994    1    1    2    0    0  0.15005759990E+01  0.80378683821E+01  0.31749233929E+01  0.17142455832E+03  0.17120000000E+03 0.  0.
        998    1    1    2    0    0 -0.27353921747E+01  0.22906253418E+01  0.14797023293E+04  0.14797404207E+04  0.10000000000E+02 0. -1.
</event>
<event>
 5    1  0.9130022E-009  0.3830114E+03  0.7957747E-01  0.3438150E+00
         13   -1    0    0    0    0  0.00000000000E+00  0.00000000000E+00  0.14999999963E+04  0.15000000000E+04  0.10566000000E+00 0.  1.
        994   -1    0    0    0    0 -0.00000000000E+00 -0.00000000000E+00  0.11368683772E-12  0.17120000000E+03  0.17120000000E+03 0.  0.
         13    1    1    2    0    0 -0.36488076976E+01 -0.19817781908E+02  0.77877233978E+02  0.80442109703E+02  0.10566000000E+00 0.  1.
        994    1    1    2    0    0  0.21927472576E-01  0.10303014580E+02  0.29721284759E+01  0.17153549527E+03  0.17120000000E+03 0.  0.
        998    1    1    2    0    0  0.36268802250E+01  0.95147673278E+01  0.14191506338E+04  0.14192223950E+04  0.10000000000E+02 0.  1.
</event>
<event>
 5    1  0.9130022E-009  0.4134105E+03  0.7957747E-01  0.3317448E+00
         13   -1    0    0    0    0  0.00000000000E+00  0.00000000000E+00  0.14999999963E+04  0.15000000000E+04  0.10566000000E+00 0. -1.
        994   -1    0    0    0    0 -0.00000000000E+00 -0.00000000000E+00  0.11368683772E-12  0.17120000000E+03  0.17120000000E+03 0.  0.
         13    1    1    2    0    0 -0.38611453140E+02 -0.67736818686E+02  0.82139598410E+02  0.11325213336E+03  0.10566000000E+00 0. -1.
        994    1    1    2    0    0 -0.16794224291E+02  0.29520460879E+02  0.40844634918E+02  0.17925185573E+03  0.17120000000E+03 0.  0.
        998    1    1    2    0    0  0.55405677431E+02  0.38216357807E+02  0.13770157630E+04  0.13786960109E+04  0.10000000000E+02 0.  1.
</event>
<event>
 5    1  0.9130022E-009  0.3841055E+03  0.7957747E-01  0.3433475E+00
         13   -1    0    0    0    0  0.00000000000E+00  0.00000000000E+00  0.14999999963E+04  0.15000000000E+04  0.10566000000E+00 0. -1.
        994   -1    0    0    0    0 -0.00000000000E+00 -0.00000000000E+00  0.11368683772E-12  0.17120000000E+03  0.17120000000E+03 0.  0.
         13    1    1    2    0    0  0.22936624804E+01  0.16184310125E+02  0.59529413484E+02  0.61732932990E+02  0.10566000000E+00 0. -1.
        994    1    1    2    0    0 -0.21596950134E+02 -0.21618389746E+02  0.51607769694E+01  0.17398234580E+03  0.17120000000E+03 0.  0.
        998    1    1    2    0    0  0.19303287654E+02  0.54340796216E+01  0.14353098058E+04  0.14354847212E+04  0.10000000000E+02 0.  1.
</event>
<event>
 5    1  0.9130022E-009  0.3849932E+03  0.7957747E-01  0.3429701E+00
         13   -1    0    0    0    0  0.00000000000E+00  0.00000000000E+00  0.14999999963E+04  0.15000000000E+04  0.10566000000E+00 0.  1.
        994   -1    0    0    0    0 -0.00000000000E+00 -0.00000000000E+00  0.11368683772E-12  0.17120000000E+03  0.17120000000E+03 0.  0.
         13    1    1    2    0    0 -0.11111278735E+02 -0.11096234819E+01  0.37211784703E+02  0.38851253058E+02  0.10566000000E+00 0.  1.
        994    1    1    2    0    0  0.11771818052E+02  0.24473834585E+01  0.21091086921E+01  0.17163465188E+03  0.17120000000E+03 0.  0.
        998    1    1    2    0    0 -0.66053931617E+00 -0.13377599766E+01  0.14606791029E+04  0.14607140951E+04  0.10000000000E+02 0.  1.
</event>
<event>
 5    1  0.9130022E-009  0.3754827E+03  0.7957747E-01  0.3471067E+00
         13   -1    0    0    0    0  0.00000000000E+00  0.00000000000E+00  0.14999999963E+04  0.15000000000E+04  0.10566000000E+00 0. -1.
        994   -1    0    0    0    0 -0.00000000000E+00 -0.00000000000E+00  0.11368683772E-12  0.17120000000E+03  0.17120000000E+03 0.  0.
         13    1    1    2    0    0  0.52691563417E+01 -0.16833350130E+02  0.21703131433E+02  0.27967172956E+02  0.10566000000E+00 0. -1.
        994    1    1    2    0    0 -0.71891263008E+01  0.58541020549E+01  0.67228283988E+01  0.17158260538E+03  0.17120000000E+03 0.  0.
        998    1    1    2    0    0  0.19199699591E+01  0.10979248075E+02  0.14715740364E+04  0.14716502217E+04  0.10000000000E+02 0. -1.
</event>
<event>
 5    1  0.9130022E-009  0.3763996E+03  0.7957747E-01  0.3466987E+00
         13   -1    0    0    0    0  0.00000000000E+00  0.00000000000E+00  0.14999999963E+04  0.15000000000E+04  0.10566000000E+00 0. -1.
        994   -1    0    0    0    0 -0.00000000000E+00 -0.00000000000E+00  0.11368683772E-12  0.17120000000E+03  0.17120000000E+03 0.  0.
         13    1    1    2    0    0 -0.26703820066E+02  0.37859403275E+02  0.20345622148E+03  0.20866450021E+03  0.10566000000E+00 0. -1.
        994    1    1    2    0    0 -0.10240092658E+02 -0.15223149889E+02  0.71014039581E+01  0.17232664834E+03  0.17120000000E+03 0.  0.
        998    1    1    2    0    0  0.36943912724E+02 -0.22636253385E+02  0.12894423708E+04  0.12902088515E+04  0.10000000000E+02 0. -1.
</event>
<event>
 5    1  0.9130022E-009  0.3839873E+03  0.7957747E-01  0.3433978E+00
         13   -1    0    0    0    0  0.00000000000E+00  0.00000000000E+00  0.14999999963E+04  0.15000000000E+04  0.10566000000E+00 0. -1.
        994   -1    0    0    0    0 -0.00000000000E+00 -0.00000000000E+00  0.11368683772E-12  0.17120000000E+03  0.17120000000E+03 0.  0.
         13    1    1    2    0    0  0.80551770321E+00 -0.11556369262E+02  0.30562331220E+02  0.32684335436E+02  0.10566000000E+00 0. -1.
        994    1    1    2    0    0 -0.87093839474E+01  0.97837578112E+01  0.27000488782E+01  0.17172159314E+03  0.17120000000E+03 0.  0.
        998    1    1    2    0    0  0.79038662442E+01  0.17726114503E+01  0.14667376162E+04  0.14667940714E+04  0.10000000000E+02 0. -1.
</event>
<event>
 5    1  0.9130022E-009  0.3834528E+03  0.7957747E-01  0.3436261E+00
         13   -1    0    0    0    0  0.00000000000E+00  0.00000000000E+00  0.14999999963E+04  0.15000000000E+04  0.10566000000E+00 0.  1.
        994   -1    0    0    0    0 -0.00000000000E+00 -0.00000000000E+00  0.11368683772E-12  0.17120000000E+03  0.17120000000E+03 0.  0.
         13    1    1    2    0    0  0.21140971021E+02 -0.76760163672E+01  0.10249921393E+03  0.10493789546E+03  0.10566000000E+00 0.  1.
        994    1    1    2    0    0 -0.16973231431E+02  0.38462022471E+01  0.34019742806E+01  0.17211594141E+03  0.17120000000E+03 0.  0.
        998    1    1    2    0    0 -0.41677395901E+01  0.38298141201E+01  0.13940988081E+04  0.13941461631E+04  0.10000000000E+02 0.  1.
</event>
<event>
 5    1  0.9130022E-009  0.3788625E+03  0.7957747E-01  0.3456126E+00
         13   -1    0    0    0    0  0.00000000000E+00  0.00000000000E+00  0.14999999963E+04  0.15000000000E+04  0.10566000000E+00 0. -1.
        994   -1    0    0    0    0 -0.00000000000E+00 -0.00000000000E+00  0.11368683772E-12  0.17120000000E+03  0.17120000000E+03 0.  0.
         13    1    1    2    0    0  0.11112346680E+02 -0.13577042027E+02  0.30778279375E+02  0.35427869881E+02  0.10566000000E+00 0. -1.
        994    1    1    2    0    0 -0.12183284057E+02  0.56363651670E+01  0.53133302403E+01  0.17180766136E+03  0.17120000000E+03 0.  0.
        998    1    1    2    0    0  0.10709373775E+01  0.79406768604E+01  0.14639083867E+04  0.14639644688E+04  0.10000000000E+02 0. -1.
</event>
<event>
 5    1  0.9130022E-009  0.3711355E+03  0.7957747E-01  0.3490689E+00
         13   -1    0    0    0    0  0.00000000000E+00  0.00000000000E+00  0.14999999963E+04  0.15000000000E+04  0.10566000000E+00 0.  1.
        994   -1    0    0    0    0 -0.00000000000E+00 -0.00000000000E+00  0.11368683772E-12  0.17120000000E+03  0.17120000000E+03 0.  0.
         13    1    1    2    0    0 -0.16803784877E+01 -0.42214084938E+02  0.81173364150E+02  0.91509446783E+02  0.10566000000E+00 0.  1.
        994    1    1    2    0    0 -0.15771916348E+02 -0.42764144256E+01  0.12478300932E+02  0.17243024404E+03  0.17120000000E+03 0.  0.
        998    1    1    2    0    0  0.17452294836E+02  0.46490499364E+02  0.14063483312E+04  0.14072603092E+04  0.10000000000E+02 0.  1.
</event>
<event>
 5    1  0.9130022E-009  0.3695545E+03  0.7957747E-01  0.3497941E+00
         13   -1    0    0    0    0  0.00000000000E+00  0.00000000000E+00  0.14999999963E+04  0.15000000000E+04  0.10566000000E+00 0. -1.
        994   -1    0    0    0    0 -0.00000000000E+00 -0.00000000000E+00  0.11368683772E-12  0.17120000000E+03  0.17120000000E+03 0.  0.
         13    1    1    2    0    0  0.33798261505E+02  0.15499582501E+02  0.59495437431E+02  0.70158946526E+02  0.10566000000E+00 0. -1.
        994    1    1    2    0    0 -0.24976871878E+02 -0.19712645882E+02  0.14245567832E+02  0.17471350474E+03  0.17120000000E+03 0.  0.
        998    1    1    2    0    0 -0.88213896275E+01  0.42130633809E+01  0.14262589910E+04  0.14263275487E+04  0.10000000000E+02 0. -1.
</event>
<event>
 5    1  0.9130022E-009  0.3803559E+03  0.7957747E-01  0.3449610E+00
         13   -1    0    0    0    0  0.00000000000E+00  0.00000000000E+00  0.14999999963E+04  0.15000000000E+04  0.10566000000E+00 0. -1.
        994   -1    0    0    0    0 -0.00000000000E+00 -0.00000000000E+00  0.11368683772E-12  0.17120000000E+03  0.17120000000E+03 0.  0.
         13    1    1    2    0    0  0.16906005331E+02 -0.34607116595E+01  0.35562056330E+02  0.39527971816E+02  0.10566000000E+00 0. -1.
        994    1    1    2    0    0 -0.14563707853E+02  0.10803720750E+02  0.50523099855E+01  0.17223178512E+03  0.17120000000E+03 0.  0.
        998    1    1    2    0    0 -0.23422974778E+01 -0.73430090907E+01  0.14593856300E+04  0.14594402431E+04  0.10000000000E+02 0. -1.
</event>
<event>
 5    1  0.9130022E-009  0.2805981E+03  0.7957747E-01  0.4045070E+00
         13   -1    0    0    0    0  0.00000000000E+00  0.00000000000E+00  0.14999999963E+04  0.15000000000E+04  0.10566000000E+00 0. -1.
        994   -1    0    0    0    0 -0.00000000000E+00 -0.00000000000E+00  0.11368683772E-12  0.17120000000E+03  0.17120000000E+03 0.  0.
         13    1    1    2    0    0 -0.11946297807E+03  0.85820524264E+02  0.62968089014E+03  0.64663328099E+03  0.10566000000E+00 0. -1.
        994    1    1    2    0    0  0.78177407910E+02 -0.40359639721E+02  0.46001704726E+02  0.19790453371E+03  0.17120000000E+03 0.  0.
        998    1    1    2    0    0  0.41285570161E+02 -0.45460884543E+02  0.82431740141E+03  0.82666218530E+03  0.10000000000E+02 0. -1.
</event>
<event>
 5    1  0.9130022E-009  0.3817390E+03  0.7957747E-01  0.3443621E+00
         13   -1    0    0    0    0  0.00000000000E+00  0.00000000000E+00  0.14999999963E+04  0.15000000000E+04  0.10566000000E+00 0. -1.
        994   -1    0    0    0    0 -0.00000000000E+00 -0.00000000000E+00  0.11368683772E-12  0.17120000000E+03  0.17120000000E+03 0.  0.
         13    1    1    2    0    0  0.11370218335E+03  0.15964077734E+03  0.93776745783E+03  0.95802984318E+03  0.10566000000E+00 0. -1.
        994    1    1    2    0    0 -0.12271992629E+03 -0.17580583236E+03  0.17512991240E+03  0.32549623226E+03  0.17120000000E+03 0.  0.
        998    1    1    2    0    0  0.90177429370E+01  0.16165055018E+02  0.38710262604E+03  0.38767392456E+03  0.10000000000E+02 0.  1.
</event>
<event>
 5    1  0.9130022E-009  0.3949713E+03  0.7957747E-01  0.3388453E+00
         13   -1    0    0    0    0  0.00000000000E+00  0.00000000000E+00  0.14999999963E+04  0.15000000000E+04  0.10566000000E+00 0.  1.
        994   -1    0    0    0    0 -0.00000000000E+00 -0.00000000000E+00  0.11368683772E-12  0.17120000000E+03  0.17120000000E+03 0.  0.
         13    1    1    2    0    0 -0.11661866286E+02  0.77729947189E+01 -0.70852141701E+01  0.15704457840E+02  0.10566000000E+00 0.  1.
        994    1    1    2    0    0 -0.21634443381E+01  0.33395482422E+02  0.29114519384E+02  0.17685314240E+03  0.17120000000E+03 0.  0.
        998    1    1    2    0    0  0.13825310624E+02 -0.41168477141E+02  0.14779706911E+04  0.14786423998E+04  0.10000000000E+02 0.  1.
</event>
<event>
 5    1  0.9130022E-009  0.3823310E+03  0.7957747E-01  0.3441071E+00
         13   -1    0    0    0    0  0.00000000000E+00  0.00000000000E+00  0.14999999963E+04  0.15000000000E+04  0.10566000000E+00 0.  1.
        994   -1    0    0    0    0 -0.00000000000E+00 -0.00000000000E+00  0.11368683772E-12  0.17120000000E+03  0.17120000000E+03 0.  0.
         13    1    1    2    0    0  0.17010012838E+02  0.69671934604E+01  0.66391445461E+02  0.68889168350E+02  0.10566000000E+00 0.  1.
        994    1    1    2    0    0  0.18134316070E+02  0.13111119272E+02  0.46240048402E+01  0.17271819907E+03  0.17120000000E+03 0.  0.
        998    1    1    2    0    0 -0.35144328908E+02 -0.20078312733E+02  0.14289845460E+04  0.14295926326E+04  0.10000000000E+02 0.  1.
</event>
<event>
 5    1  0.2036819E-008  0.3863493E+03  0.7957747E-01  0.3423970E+00
         13   -1    0    0    0    0  0.00000000000E+00  0.00000000000E+00  0.14999999963E+04  0.15000000000E+04  0.10566000000E+00 0.  1.
        994   -1    0    0    0    0 -0.00000000000E+00 -0.00000000000E+00  0.11368683772E-12  0.17120000000E+03  0.17120000000E+03 0.  0.
         13    1    1    2    0    0 -0.10095227994E+02 -0.15822659249E+01  0.52992299238E+02  0.53968621775E+02  0.10566000000E+00 0.  1.
        994    1    1    2    0    0  0.12373288036E+02  0.30245591551E+01  0.14931116404E+01  0.17167968895E+03  0.17120000000E+03 0.  0.
        998    1    1    2    0    0 -0.22780600418E+01 -0.14422932302E+01  0.14455145854E+04  0.14455516893E+04  0.10000000000E+02 0.  1.
</event>
<event>
 5    1  0.9130022E-009  0.3766331E+03  0.7957747E-01  0.3465951E+00
         13   -1    0    0    0    0  0.00000000000E+00  0.00000000000E+00  0.14999999963E+04  0.15000000000E+04  0.10566000000E+00 0. -1.
        994   -1    0    0    0    0 -0.00000000000E+00 -0.00000000000E+00  0.11368683772E-12  0.17120000000E+03  0.17120000000E+03 0.  0.
         13    1    1    2    0    0  0.66648203468E+02  0.25693642939E+02  0.35093561476E+03  0.35813120945E+03  0.10566000000E+00 0. -1.
        994    1    1    2    0    0 -0.59933095488E+02 -0.27382625858E+02  0.20664032747E+02  0.18460288834E+03  0.17120000000E+03 0.  0.
        998    1    1    2    0    0 -0.67151079796E+01  0.16889829192E+01  0.11284003488E+04  0.11284659022E+04  0.10000000000E+02 0. -1.
</event>
<event>
 5    1  0.9130022E-009  0.3758640E+03  0.7957747E-01  0.3469368E+00
         13   -1    0    0    0    0  0.00000000000E+00  0.00000000000E+00  0.14999999963E+04  0.15000000000E+04  0.10566000000E+00 0.  1.
        994   -1    0    0    0    0 -0.00000000000E+00 -0.00000000000E+00  0.11368683772E-12  0.17120000000E+03  0.17120000000E+03 0.  0.
         13    1    1    2    0    0  0.53260372923E+01 -0.30935337831E+02  0.88817404210E+02  0.94201402614E+02  0.10566000000E+00 0.  1.
        994    1    1    2    0    0  0.56034116326E+00 -0.15779202399E+02  0.70811071323E+01  0.17207230831E+03  0.17120000000E+03 0.  0.
        998    1    1    2    0    0 -0.58863784555E+01  0.46714540230E+02  0.14041014849E+04  0.14049262891E+04  0.10000000000E+02 0.  1.
</event>
<event>
 5    1  0.9130022E-009  0.3843359E+03  0.7957747E-01  0.3432494E+00
         13   -1    0    0    0    0  0.00000000000E+00  0.00000000000E+00  0.14999999963E+04  0.15000000000E+04  0.10566000000E+00 0. -1.
        994   -1    0    0    0    0 -0.00000000000E+00 -0.00000000000E+00  0.11368683772E-12  0.17120000000E+03  0.17120000000E+03 0.  0.
         13    1    1    2    0    0  0.15979611976E+02 -0.38909625487E+00  0.64414385094E+02  0.66368091474E+02  0.10566000000E+00 0. -1.
        994    1    1    2    0    0 -0.11554843283E+02  0.72659983348E+01  0.25744854244E+01  0.17176256027E+03  0.17120000000E+03 0.  0.
        998    1    1    2    0    0 -0.44247686932E+01 -0.68769020799E+01  0.14330111258E+04  0.14330693483E+04  0.10000000000E+02 0. -1.
</event>
<event>
 5    1  0.9130022E-009  0.3837396E+03  0.7957747E-01  0.3435036E+00
         13   -1    0    0    0    0  0.00000000000E+00  0.00000000000E+00  0.14999999963E+04  0.15000000000E+04  0.10566000000E+00 0. -1.
        994   -1    0    0    0    0 -0.00000000000E+00 -0.00000000000E+00  0.11368683772E-12  0.17120000000E+03  0.17120000000E+03 0.  0.
         13    1    1    2    0    0 -0.85838489826E+01 -0.10167406943E+02  0.40115514210E+02  0.42264929571E+02  0.10566000000E+00 0. -1.
        994    1    1    2    0    0 -0.26140431007E+02  0.23239323403E+02  0.63075187973E+01  0.17485025902E+03  0.17120000000E+03 0.  0.
        998    1    1    2    0    0  0.34724279990E+02 -0.13071916460E+02  0.14535769633E+04  0.14540848114E+04  0.10000000000E+02 0. -1.
</event>
<event>
 5    1  0.9130022E-009  0.3702661E+03  0.7957747E-01  0.3494669E+00
         13   -1    0    0    0    0  0.00000000000E+00  0.00000000000E+00  0.14999999963E+04  0.15000000000E+04  0.10566000000E+00 0. -1.
        994   -1    0    0    0    0 -0.00000000000E+00 -0.00000000000E+00  0.11368683772E-12  0.17120000000E+03  0.17120000000E+03 0.  0.
         13    1    1    2    0    0  0.21779530015E+02 -0.57956831212E+02  0.18322187037E+03  0.19340012192E+03  0.10566000000E+00 0. -1.
        994    1    1    2    0    0 -0.86782431057E+01  0.18678765290E+02  0.12565347367E+02  0.17289168902E+03  0.17120000000E+03 0.  0.
        998    1    1    2    0    0 -0.13101286909E+02  0.39278065923E+02  0.13042127785E+04  0.13049081891E+04  0.10000000000E+02 0. -1.
</event>
<event>
 5    1  0.9130022E-009  0.3987337E+03  0.7957747E-01  0.3373436E+00
         13   -1    0    0    0    0  0.00000000000E+00  0.00000000000E+00  0.14999999963E+04  0.15000000000E+04  0.10566000000E+00 0. -1.
        994   -1    0    0    0    0 -0.00000000000E+00 -0.00000000000E+00  0.11368683772E-12  0.17120000000E+03  0.17120000000E+03 0.  0.
         13    1    1    2    0    0 -0.25452946475E+01  0.10714978231E+03  0.23627270259E+03  0.25944624786E+03  0.10566000000E+00 0. -1.
        994    1    1    2    0    0  0.10119333965E+02 -0.33974143094E+02  0.31932827541E+02  0.17772391171E+03  0.17120000000E+03 0.  0.
        998    1    1    2    0    0 -0.75740393172E+01 -0.73175639215E+02  0.12317944661E+04  0.12340298404E+04  0.10000000000E+02 0. -1.
</event>
<event>
 5    1  0.9130022E-009  0.3828574E+03  0.7957747E-01  0.3438810E+00
         13   -1    0    0    0    0  0.00000000000E+00  0.00000000000E+00  0.14999999963E+04  0.15000000000E+04  0.10566000000E+00 0. -1.
        994   -1    0    0    0    0 -0.00000000000E+00 -0.00000000000E+00  0.11368683772E-12  0.17120000000E+03  0.17120000000E+03 0.  0.
         13    1    1    2    0    0 -0.53226276958E+01 -0.16460234920E+02  0.55068533145E+02  0.57721956013E+02  0.10566000000E+00 0. -1.
        994    1    1    2    0    0  0.14009339815E+01  0.97262731164E+01  0.30174843950E+01  0.17150833279E+03  0.17120000000E+03 0.  0.
        998    1    1    2    0    0  0.39216937143E+01  0.67339618039E+01  0.14419139787E+04  0.14419697112E+04  0.10000000000E+02 0. -1.
</event>
<event>
 5    1  0.9130022E-009  0.3754740E+03  0.7957747E-01  0.3471106E+00
         13   -1    0    0    0    0  0.00000000000E+00  0.00000000000E+00  0.14999999963E+04  0.15000000000E+04  0.10566000000E+00 0. -1.
        994   -1    0    0    0    0 -0.00000000000E+00 -0.00000000000E+00  0.11368683772E-12  0.17120000000E+03  0.17120000000E+03 0.  0.
         13    1    1    2    0    0  0.54186614288E+02 -0.54705549083E+00  0.26315137541E+03  0.26867293496E+03  0.10566000000E+00 0. -1.
        994    1    1    2    0    0 -0.13824996535E+02 -0.47144990524E+02  0.14671758533E+02  0.17871340509E+03  0.17120000000E+03 0.  0.
        998    1    1    2    0    0 -0.40361617753E+02  0.47692046015E+02  0.12221768623E+04  0.12238136599E+04  0.10000000000E+02 0. -1.
</event>
<event>
 5    1  0.9130022E-009  0.3848417E+03  0.7957747E-01  0.3430344E+00
         13   -1    0    0    0    0  0.00000000000E+00  0.00000000000E+00  0.14999999963E+04  0.15000000000E+04  0.10566000000E+00 0. -1.
        994   -1    0    0    0    0 -0.00000000000E+00 -0.00000000000E+00  0.11368683772E-12  0.17120000000E+03  0.17120000000E+03 0.  0.
         13    1    1    2    0    0 -0.13765027933E+02 -0.97961004163E+00  0.56677594666E+02  0.58333494075E+02  0.10566000000E+00 0. -1.
        994    1    1    2    0    0  0.56272559917E+01  0.47130682176E+01  0.18860521154E+01  0.17136766385E+03  0.17120000000E+03 0.  0.
        998    1    1    2    0    0  0.81377719409E+01 -0.37334581759E+01  0.14414363495E+04  0.14414988421E+04  0.10000000000E+02 0. -1.
</event>
<event>
 5    1  0.9130022E-009  0.3826940E+03  0.7957747E-01  0.3439512E+00
         13   -1    0    0    0    0  0.00000000000E+00  0.00000000000E+00  0.14999999963E+04  0.15000000000E+04  0.10566000000E+00 0. -1.
        994   -1    0    0    0    0 -0.00000000000E+00 -0.00000000000E+00  0.11368683772E-12  0.17120000000E+03  0.17120000000E+03 0.  0.
         13    1    1    2    0    0 -0.90809523344E+01 -0.18610165559E+02  0.77734127760E+02  0.80445060383E+02  0.10566000000E+00 0. -1.
        994    1    1    2    0    0  0.69074985786E+01  0.74366361158E+01  0.31208065563E+01  0.17152899617E+03  0.17120000000E+03 0.  0.
        998    1    1    2    0    0  0.21734537558E+01  0.11173529444E+02  0.14191450620E+04  0.14192259434E+04  0.10000000000E+02 0. -1.
</event>
<event>
 5    1  0.9130022E-009  0.3851026E+03  0.7957747E-01  0.3429237E+00
         13   -1    0    0    0    0  0.00000000000E+00  0.00000000000E+00  0.14999999963E+04  0.15000000000E+04  0.10566000000E+00 0.  1.
        994   -1    0    0    0    0 -0.00000000000E+00 -0.00000000000E+00  0.11368683772E-12  0.17120000000E+03  0.17120000000E+03 0.  0.
         13    1    1    2    0    0 -0.17432779681E+02  0.15282996240E+01  0.91904823091E+02  0.93556107116E+02  0.10566000000E+00 0.  1.
        994    1    1    2    0    0  0.18332819749E+02 -0.26595281814E+01  0.27082144382E+01  0.17222061374E+03  0.17120000000E+03 0.  0.
        998    1    1    2    0    0 -0.90004006756E+00  0.11312285574E+01  0.14053869587E+04  0.14054232791E+04  0.10000000000E+02 0.  1.
</event>
<event>
 5    1  0.9130022E-009  0.3847408E+03  0.7957747E-01  0.3430772E+00
         13   -1    0    0    0    0  0.00000000000E+00  0.00000000000E+00  0.14999999963E+04  0.15000000000E+04  0.10566000000E+00 0.  1.
        994   -1    0    0    0    0 -0.00000000000E+00 -0.00000000000E+00  0.11368683772E-12  0.17120000000E+03  0.17120000000E+03 0.  0.
         13    1    1    2    0    0  0.51185563406E+01 -0.92375554124E+01  0.30913228783E+02  0.32667582201E+02  0.10566000000E+00 0.  1.
        994    1    1    2    0    0  0.26422529622E+02  0.27634659736E+02  0.65852457565E+01  0.17554096374E+03  0.17120000000E+03 0.  0.
        998    1    1    2    0    0 -0.31541085962E+02 -0.18397104323E+02  0.14625015217E+04  0.14629914541E+04  0.10000000000E+02 0.  1.
</event>
<event>
 5    1  0.9130022E-009  0.3849471E+03  0.7957747E-01  0.3429897E+00
         13   -1    0    0    0    0  0.00000000000E+00  0.00000000000E+00  0.14999999963E+04  0.15000000000E+04  0.10566000000E+00 0. -1.
        994   -1    0    0    0    0 -0.00000000000E+00 -0.00000000000E+00  0.11368683772E-12  0.17120000000E+03  0.17120000000E+03 0.  0.
         13    1    1    2    0    0  0.10643749362E+02  0.74106721799E+01  0.49434169700E+02  0.51107296550E+02  0.10566000000E+00 0. -1.
        994    1    1    2    0    0  0.55733384492E+01 -0.32673302988E+02  0.52783467491E+01  0.17445889996E+03  0.17120000000E+03 0.  0.
        998    1    1    2    0    0 -0.16217087811E+02  0.25262630808E+02  0.14452874798E+04  0.14456338035E+04  0.10000000000E+02 0. -1.
</event>
<event>
 5    1  0.9130022E-009  0.3771637E+03  0.7957747E-01  0.3463602E+00
         13   -1    0    0    0    0  0.00000000000E+00  0.00000000000E+00  0.14999999963E+04  0.15000000000E+04  0.10566000000E+00 0. -1.
        994   -1    0    0    0    0 -0.00000000000E+00 -0.00000000000E+00  0.11368683772E-12  0.17120000000E+03  0.17120000000E+03 0.  0.
         13    1    1    2    0    0  0.39046339474E+02  0.16520165121E+02  0.18658994119E+03  0.19134615178E+03  0.10566000000E+00 0. -1.
        994    1    1    2    0    0 -0.11765509788E+02  0.25405120650E+02  0.82214881641E+01  0.17366888105E+03  0.17120000000E+03 0.  0.
        998    1    1    2    0    0 -0.27280829686E+02 -0.41925285771E+02  0.13051885669E+04  0.13061849672E+04  0.10000000000E+02 0. -1.
</event>
<event>
 5    1  0.9130022E-009  0.3798114E+03  0.7957747E-01  0.3451980E+00
         13   -1    0    0    0    0  0.00000000000E+00  0.00000000000E+00  0.14999999963E+04  0.15000000000E+04  0.10566000000E+00 0. -1.
        994   -1    0    0    0    0 -0.00000000000E+00 -0.00000000000E+00  0.11368683772E-12  0.17120000000E+03  0.17120000000E+03 0.  0.
         13    1    1    2    0    0 -0.75874566335E+00 -0.78032376302E+02  0.45086149145E+03  0.45756499329E+03  0.10566000000E+00 0. -1.
        994    1    1    2    0    0  0.20374103834E+02  0.87376670802E+02  0.31642955752E+02  0.19585837576E+03  0.17120000000E+03 0.  0.
        998    1    1    2    0    0 -0.19615358171E+02 -0.93442945001E+01  0.10174955491E+04  0.10177766309E+04  0.10000000000E+02 0. -1.
</event>
<event>
 5    1  0.9130022E-009  0.3822386E+03  0.7957747E-01  0.3441469E+00
         13   -1    0    0    0    0  0.00000000000E+00  0.00000000000E+00  0.14999999963E+04  0.15000000000E+04  0.10566000000E+00 0.  1.
        994   -1    0    0    0    0 -0.00000000000E+00 -0.00000000000E+00  0.11368683772E-12  0.17120000000E+03  0.17120000000E+03 0.  0.
         13    1    1    2    0    0  0.12832090993E+02  0.19287984081E+01  0.26374960978E+02  0.29394430649E+02  0.10566000000E+00 0.  1.
        994    1    1    2    0    0 -0.14117482551E+02 -0.50132142236E+01  0.37524712026E+01  0.17189519095E+03  0.17120000000E+03 0.  0.
        998    1    1    2    0    0  0.12853915580E+01  0.30844158155E+01  0.14698725641E+04  0.14699103784E+04  0.10000000000E+02 0.  1.
</event>
<event>
 5    1  0.9130022E-009  0.3754205E+03  0.7957747E-01  0.3471344E+00
         13   -1    0    0    0    0  0.00000000000E+00  0.00000000000E+00  0.14999999963E+04  0.15000000000E+04  0.10566000000E+00 0.  1.
        994   -1    0    0    0    0 -0.00000000000E+00 -0.00000000000E+00  0.11368683772E-12  0.17120000000E+03  0.17120000000E+03 0.  0.
         13    1    1    2    0    0  0.56967217544E+02  0.11207051898E+03  0.66835076214E+03  0.68007192084E+03  0.10566000000E+00 0.  1.
        994    1    1    2    0    0 -0.53989934399E+02 -0.11052058393E+03  0.59685762631E+02  0.21909254380E+03  0.17120000000E+03 0.  0.
        998    1    1    2    0    0 -0.29772831446E+01 -0.15499350521E+01  0.77196347151E+03  0.77203553536E+03  0.10000000000E+02 0.  0.
</event>
<event>
 5    1  0.9130022E-009  0.3854633E+03  0.7957747E-01  0.3427710E+00
         13   -1    0    0    0    0  0.00000000000E+00  0.00000000000E+00  0.14999999963E+04  0.15000000000E+04  0.10566000000E+00 0.  1.
        994   -1    0    0    0    0 -0.00000000000E+00 -0.00000000000E+00  0.11368683772E-12  0.17120000000E+03  0.17120000000E+03 0.  0.
         13    1    1    2    0    0 -0.15420331258E+02  0.29732455375E+01  0.88463218677E+02  0.89846419116E+02  0.10566000000E+00 0.  1.
        994    1    1    2    0    0  0.10695901902E+02  0.15561749940E+01  0.17839842388E+01  0.17155012853E+03  0.17120000000E+03 0.  0.
        998    1    1    2    0    0  0.47244293558E+01 -0.45294205315E+01  0.14097527934E+04  0.14098034524E+04  0.10000000000E+02 0.  1.
</event>
<event>
 5    1  0.9130022E-009  0.3732058E+03  0.7957747E-01  0.3481286E+00
         13   -1    0    0    0    0  0.00000000000E+00  0.00000000000E+00  0.14999999963E+04  0.15000000000E+04  0.10566000000E+00 0.  1.
        994   -1    0    0    0    0 -0.00000000000E+00 -0.00000000000E+00  0.11368683772E-12  0.17120000000E+03  0.17120000000E+03 0.  0.
         13    1    1    2    0    0  0.31415994009E+02 -0.80477373432E+02  0.25250622772E+03  0.26687633562E+03  0.10566000000E+00 0.  1.
        994    1    1    2    0    0 -0.79801799259E+02  0.54922039862E+02  0.46613713887E+02  0.20215596936E+03  0.17120000000E+03 0.  0.
        998    1    1    2    0    0  0.48385805250E+02  0.25555333570E+02  0.12008800547E+04  0.12021676950E+04  0.10000000000E+02 0.  1.
</event>
<event>
 5    1  0.9130022E-009  0.3742700E+03  0.7957747E-01  0.3476494E+00
         13   -1    0    0    0    0  0.00000000000E+00  0.00000000000E+00  0.14999999963E+04  0.15000000000E+04  0.10566000000E+00 0.  1.
        994   -1    0    0    0    0 -0.00000000000E+00 -0.00000000000E+00  0.11368683772E-12  0.17120000000E+03  0.17120000000E+03 0.  0.
         13    1    1    2    0    0  0.53319324488E+02 -0.17586265234E+02  0.19002741361E+03  0.19814806629E+03  0.10566000000E+00 0.  1.
        994    1    1    2    0    0 -0.61760336641E+02  0.40722556539E+01  0.20222548722E+02  0.18316471801E+03  0.17120000000E+03 0.  0.
        998    1    1    2    0    0  0.84410121528E+01  0.13514009580E+02  0.12897500339E+04  0.12898872157E+04  0.10000000000E+02 0.  1.
</event>
<event>
 5    1  0.9130022E-009  0.3796109E+03  0.7957747E-01  0.3452855E+00
         13   -1    0    0    0    0  0.00000000000E+00  0.00000000000E+00  0.14999999963E+04  0.15000000000E+04  0.10566000000E+00 0. -1.
        994   -1    0    0    0    0 -0.00000000000E+00 -0.00000000000E+00  0.11368683772E-12  0.17120000000E+03  0.17120000000E+03 0.  0.
         13    1    1    2    0    0 -0.96557724930E+02  0.15643228324E+02  0.55822675763E+03  0.56673206097E+03  0.10566000000E+00 0. -1.
        994    1    1    2    0    0  0.11098691765E+03 -0.13132509200E+02  0.47340967110E+02  0.20985987195E+03  0.17120000000E+03 0.  0.
        998    1    1    2    0    0 -0.14429192721E+02 -0.25107191231E+01  0.89443227154E+03  0.89460806708E+03  0.10000000000E+02 0.  1.
</event>
<event>
 5    1  0.9130022E-009  0.3782448E+03  0.7957747E-01  0.3458837E+00
         13   -1    0    0    0    0  0.00000000000E+00  0.00000000000E+00  0.14999999963E+04  0.15000000000E+04  0.10566000000E+00 0. -1.
        994   -1    0    0    0    0 -0.00000000000E+00 -0.00000000000E+00  0.11368683772E-12  0.17120000000E+03  0.17120000000E+03 0.  0.
         13    1    1    2    0    0 -0.10135311650E+01 -0.38818440290E+02  0.13368525363E+03  0.13921083562E+03  0.10566000000E+00 0. -1.
        994    1    1    2    0    0 -0.83057186622E+01  0.42603572484E+02  0.11383042577E+02  0.17698322804E+03  0.17120000000E+03 0.  0.
        998    1    1    2    0    0  0.93192498271E+01 -0.37851321940E+01  0.13549317001E+04  0.13550059363E+04  0.10000000000E+02 0. -1.
</event>
<event>
 5    1  0.9130022E-009  0.3855516E+03  0.7957747E-01  0.3427336E+00
         13   -1    0    0    0    0  0.00000000000E+00  0.00000000000E+00  0.14999999963E+04  0.15000000000E+04  0.10566000000E+00 0.  1.
        994   -1    0    0    0    0 -0.00000000000E+00 -0.00000000000E+00  0.11368683772E-12  0.17120000000E+03  0.17120000000E+03 0.  0.
         13    1    1    2    0    0 -0.60106740070E+01 -0.84982409000E+01  0.39831249086E+02  0.41169015876E+02  0.10566000000E+00 0.  1.
        994    1    1    2    0    0  0.54128650984E+01  0.62098678103E+01  0.15793151641E+01  0.17140535523E+03  0.17120000000E+03 0.  0.
        998    1    1    2    0    0  0.59780890858E+00  0.22883730897E+01  0.14585894320E+04  0.14586256289E+04  0.10000000000E+02 0.  1.
</event>
<event>
 5    1  0.9130022E-009  0.3761424E+03  0.7957747E-01  0.3468129E+00
         13   -1    0    0    0    0  0.00000000000E+00  0.00000000000E+00  0.14999999963E+04  0.15000000000E+04  0.10566000000E+00 0. -1.
        994   -1    0    0    0    0 -0.00000000000E+00 -0.00000000000E+00  0.11368683772E-12  0.17120000000E+03  0.17120000000E+03 0.  0.
         13    1    1    2    0    0 -0.42111274978E+02  0.10756463218E+02  0.14476792207E+03  0.15115165697E+03  0.10566000000E+00 0. -1.
        994    1    1    2    0    0  0.37244474504E+02 -0.65448467468E+00  0.10806265396E+02  0.17553858437E+03  0.17120000000E+03 0.  0.
        998    1    1    2    0    0  0.48668004738E+01 -0.10101978543E+02  0.13444258088E+04  0.13445097587E+04  0.10000000000E+02 0. -1.
</event>
<event>
 5    1  0.9130022E-009  0.3750802E+03  0.7957747E-01  0.3472864E+00
         13   -1    0    0    0    0  0.00000000000E+00  0.00000000000E+00  0.14999999963E+04  0.15000000000E+04  0.10566000000E+00 0.  1.
        994   -1    0    0    0    0 -0.00000000000E+00 -0.00000000000E+00  0.11368683772E-12  0.17120000000E+03  0.17120000000E+03 0.  0.
         13    1    1    2    0    0  0.13610703669E+02 -0.17292353266E+02  0.11687083316E+02  0.24917379804E+02  0.10566000000E+00 0.  1.
        994    1    1    2    0    0 -0.14782579535E+02  0.14778956786E+02  0.15207385048E+02  0.17314054055E+03  0.17120000000E+03 0.  0.
        998    1    1    2    0    0  0.11718758658E+01  0.25133964795E+01  0.14731055279E+04  0.14731420796E+04  0.10000000000E+02 0.  1.
</event>
<event>
 5    1  0.9130022E-009  0.3861111E+03  0.7957747E-01  0.3424974E+00
         13   -1    0    0    0    0  0.00000000000E+00  0.00000000000E+00  0.14999999963E+04  0.15000000000E+04  0.10566000000E+00 0. -1.
        994   -1    0    0    0    0 -0.00000000000E+00 -0.00000000000E+00  0.11368683772E-12  0.17120000000E+03  0.17120000000E+03 0.  0.
         13    1    1    2    0    0 -0.92348892229E+01 -0.81710540394E+01  0.70980805413E+02  0.72043981041E+02  0.10566000000E+00 0. -1.
        994    1    1    2    0    0  0.26692665939E+01  0.10441083634E+02  0.14601755691E+01  0.17154507665E+03  0.17120000000E+03 0.  0.
        998    1    1    2    0    0  0.65656226290E+01 -0.22700295945E+01  0.14275590153E+04  0.14276109423E+04  0.10000000000E+02 0. -1.
</event>
<event>
 5    1  0.9130022E-009  0.3846632E+03  0.7957747E-01  0.3431102E+00
         13   -1    0    0    0    0  0.00000000000E+00  0.00000000000E+00  0.14999999963E+04  0.15000000000E+04  0.10566000000E+00 0. -1.
        994   -1    0    0    0    0 -0.00000000000E+00 -0.00000000000E+00  0.11368683772E-12  0.17120000000E+03  0.17120000000E+03 0.  0.
         13    1    1    2    0    0 -0.13137525041E+02 -0.85468426095E+01  0.70058406437E+02  0.71790212142E+02  0.10566000000E+00 0. -1.
        994    1    1    2    0    0  0.10690715253E+02 -0.53005245879E+01  0.22663817272E+01  0.17163031038E+03  0.17120000000E+03 0.  0.
        998    1    1    2    0    0  0.24468097878E+01  0.13847367197E+02  0.14276752081E+04  0.14277794775E+04  0.10000000000E+02 0. -1.
</event>
<event>
 5    1  0.9130022E-009  0.3861832E+03  0.7957747E-01  0.3424669E+00
         13   -1    0    0    0    0  0.00000000000E+00  0.00000000000E+00  0.14999999963E+04  0.15000000000E+04  0.10566000000E+00 0. -1.
        994   -1    0    0    0    0 -0.00000000000E+00 -0.00000000000E+00  0.11368683772E-12  0.17120000000E+03  0.17120000000E+03 0.  0.
         13    1    1    2    0    0 -0.12579566731E+02 -0.39720261310E+01  0.79624888050E+02  0.80710324319E+02  0.10566000000E+00 0. -1.
        994    1    1    2    0    0  0.15621996966E+02  0.25087924366E+01  0.18643869662E+01  0.17193968933E+03  0.17120000000E+03 0.  0.
        998    1    1    2    0    0 -0.30424302351E+01  0.14632336944E+01  0.14185107213E+04  0.14185499863E+04  0.10000000000E+02 0. -1.
</event>
<event>
 5    1  0.9130022E-009  0.3763807E+03  0.7957747E-01  0.3467071E+00
         13   -1    0    0    0    0  0.00000000000E+00  0.00000000000E+00  0.14999999963E+04  0.15000000000E+04  0.10566000000E+00 0. -1.
        994   -1    0    0    0    0 -0.00000000000E+00 -0.00000000000E+00  0.11368683772E-12  0.17120000000E+03  0.17120000000E+03 0.  0.
         13    1    1    2    0    0 -0.33904791145E+01  0.23807988586E+02  0.45907503409E+02  0.51824952508E+02  0.10566000000E+00 0. -1.
        994    1    1    2    0    0  0.10290124774E+01 -0.17123015261E+02  0.69676337648E+01  0.17219827072E+03  0.17120000000E+03 0.  0.
        998    1    1    2    0    0  0.23614666371E+01 -0.66849733257E+01  0.14471248591E+04  0.14471767768E+04  0.10000000000E+02 0. -1.
</event>
<event>
 5    1  0.9130022E-009  0.4120729E+03  0.7957747E-01  0.3322387E+00
         13   -1    0    0    0    0  0.00000000000E+00  0.00000000000E+00  0.14999999963E+04  0.15000000000E+04  0.10566000000E+00 0.  1.
        994   -1    0    0    0    0 -0.00000000000E+00 -0.00000000000E+00  0.11368683772E-12  0.17120000000E+03  0.17120000000E+03 0.  0.
         13    1    1    2    0    0 -0.31052680767E+02 -0.63487915645E+02  0.53466559017E+02  0.88620925931E+02  0.10566000000E+00 0.  1.
        994    1    1    2    0    0  0.47671832003E+02  0.80055940418E+02  0.71964769159E+02  0.20777373550E+03  0.17120000000E+03 0.  0.
        998    1    1    2    0    0 -0.16619151235E+02 -0.16568024774E+02  0.13745686681E+04  0.13748053386E+04  0.10000000000E+02 0.  1.
</event>
<event>
 5    1  0.9130022E-009  0.3827395E+03  0.7957747E-01  0.3439316E+00
         13   -1    0    0    0    0  0.00000000000E+00  0.00000000000E+00  0.14999999963E+04  0.15000000000E+04  0.10566000000E+00 0.  1.
        994   -1    0    0    0    0 -0.00000000000E+00 -0.00000000000E+00  0.11368683772E-12  0.17120000000E+03  0.17120000000E+03 0.  0.
         13    1    1    2    0    0  0.22961595752E+02 -0.16126237703E+02  0.14352179759E+03  0.14623887297E+03  0.10566000000E+00 0.  1.
        994    1    1    2    0    0 -0.19865458754E+02 -0.12336827991E+01  0.40701706635E+01  0.17240117376E+03  0.17120000000E+03 0.  0.
        998    1    1    2    0    0 -0.30961369985E+01  0.17359920502E+02  0.13524080280E+04  0.13525599533E+04  0.10000000000E+02 0.  1.
</event>
<event>
 5    1  0.9130022E-009  0.3724494E+03  0.7957747E-01  0.3484709E+00
         13   -1    0    0    0    0  0.00000000000E+00  0.00000000000E+00  0.14999999963E+04  0.15000000000E+04  0.10566000000E+00 0.  1.
        994   -1    0    0    0    0 -0.00000000000E+00 -0.00000000000E+00  0.11368683772E-12  0.17120000000E+03  0.17120000000E+03 0.  0.
         13    1    1    2    0    0 -0.15824754206E+02  0.78934225688E+01  0.15748507585E+02  0.23680279152E+02  0.10566000000E+00 0.  1.
        994    1    1    2    0    0  0.19680231513E+02 -0.87528747086E+01  0.95866708106E+01  0.17281570700E+03  0.17120000000E+03 0.  0.
        998    1    1    2    0    0 -0.38554773072E+01  0.85945213977E+00  0.14746648179E+04  0.14747040138E+04  0.10000000000E+02 0.  1.
</event>
<event>
 5    1  0.9130022E-009  0.3749046E+03  0.7957747E-01  0.3473650E+00
         13   -1    0    0    0    0  0.00000000000E+00  0.00000000000E+00  0.14999999963E+04  0.15000000000E+04  0.10566000000E+00 0. -1.
        994   -1    0    0    0    0 -0.00000000000E+00 -0.00000000000E+00  0.11368683772E-12  0.17120000000E+03  0.17120000000E+03 0.  0.
         13    1    1    2    0    0 -0.32735343931E+02 -0.88654977345E+01  0.79880933205E+02  0.86782339483E+02  0.10566000000E+00 0. -1.
        994    1    1    2    0    0  0.31571204892E+02  0.34537113969E+01  0.10165159580E+02  0.17441742909E+03  0.17120000000E+03 0.  0.
        998    1    1    2    0    0  0.11641390389E+01  0.54117863376E+01  0.14099539035E+04  0.14100002314E+04  0.10000000000E+02 0. -1.
</event>
<event>
 5    1  0.9130022E-009  0.3715470E+03  0.7957747E-01  0.3488811E+00
         13   -1    0    0    0    0  0.00000000000E+00  0.00000000000E+00  0.14999999963E+04  0.15000000000E+04  0.10566000000E+00 0.  1.
        994   -1    0    0    0    0 -0.00000000000E+00 -0.00000000000E+00  0.11368683772E-12  0.17120000000E+03  0.17120000000E+03 0.  0.
         13    1    1    2    0    0 -0.18414169121E+02 -0.12706257756E+02  0.26294358560E+02  0.34524412619E+02  0.10566000000E+00 0.  1.
        994    1    1    2    0    0  0.12697858174E+02  0.22928073456E+01  0.90355194476E+01  0.17192316068E+03  0.17120000000E+03 0.  0.
        998    1    1    2    0    0  0.57163109470E+01  0.10413450410E+02  0.14646701183E+04  0.14647524267E+04  0.10000000000E+02 0.  1.
</event>
<event>
 5    1  0.9130022E-009  0.3779370E+03  0.7957747E-01  0.3460191E+00
         13   -1    0    0    0    0  0.00000000000E+00  0.00000000000E+00  0.14999999963E+04  0.15000000000E+04  0.10566000000E+00 0.  1.
        994   -1    0    0    0    0 -0.00000000000E+00 -0.00000000000E+00  0.11368683772E-12  0.17120000000E+03  0.17120000000E+03 0.  0.
         13    1    1    2    0    0  0.87937601475E+01  0.25831313693E+02  0.68449359061E+02  0.73687942735E+02  0.10566000000E+00 0.  1.
        994    1    1    2    0    0 -0.97713673692E+00 -0.23843996745E+02  0.70973913851E+01  0.17300087844E+03  0.17120000000E+03 0.  0.
        998    1    1    2    0    0 -0.78166234106E+01 -0.19873169483E+01  0.14244532458E+04  0.14245111788E+04  0.10000000000E+02 0.  1.
</event>
<event>
 5    1  0.9130022E-009  0.3694754E+03  0.7957747E-01  0.3498305E+00
         13   -1    0    0    0    0  0.00000000000E+00  0.00000000000E+00  0.14999999963E+04  0.15000000000E+04  0.10566000000E+00 0.  1.
        994   -1    0    0    0    0 -0.00000000000E+00 -0.00000000000E+00  0.11368683772E-12  0.17120000000E+03  0.17120000000E+03 0.  0.
         13    1    1    2    0    0 -0.15191814184E+02 -0.70930294235E+00  0.79653267926E+01  0.17168340741E+02  0.10566000000E+00 0.  1.
        994    1    1    2    0    0  0.38453358992E+01 -0.77610649269E+01  0.98034331654E+01  0.17169906243E+03  0.17120000000E+03 0.  0.
        998    1    1    2    0    0  0.11346478285E+02  0.84703678693E+01  0.14822312363E+04  0.14823325968E+04  0.10000000000E+02 0.  1.
</event>
<event>
 5    1  0.9130022E-009  0.3856583E+03  0.7957747E-01  0.3426885E+00
         13   -1    0    0    0    0  0.00000000000E+00  0.00000000000E+00  0.14999999963E+04  0.15000000000E+04  0.10566000000E+00 0.  1.
        994   -1    0    0    0    0 -0.00000000000E+00 -0.00000000000E+00  0.11368683772E-12  0.17120000000E+03  0.17120000000E+03 0.  0.
         13    1    1    2    0    0  0.10330515458E+02 -0.33259273497E+01  0.44852213255E+02  0.46146652536E+02  0.10566000000E+00 0.  1.
        994    1    1    2    0    0 -0.10285381699E+02 -0.71837826930E+00  0.16526135729E+01  0.17151815145E+03  0.17120000000E+03 0.  0.
        998    1    1    2    0    0 -0.45133758604E-01  0.40443056190E+01  0.14534951695E+04  0.14535351960E+04  0.10000000000E+02 0.  1.
</event>
<event>
 5    1  0.9130022E-009  0.3804818E+03  0.7957747E-01  0.3449063E+00
         13   -1    0    0    0    0  0.00000000000E+00  0.00000000000E+00  0.14999999963E+04  0.15000000000E+04  0.10566000000E+00 0.  1.
        994   -1    0    0    0    0 -0.00000000000E+00 -0.00000000000E+00  0.11368683772E-12  0.17120000000E+03  0.17120000000E+03 0.  0.
         13    1    1    2    0    0 -0.27830398894E+02  0.14855844638E+02  0.21699840961E+02  0.38289965843E+02  0.10566000000E+00 0.  1.
        994    1    1    2    0    0  0.36748487634E+02 -0.37990260771E+02  0.26803586447E+02  0.18116728044E+03  0.17120000000E+03 0.  0.
        998    1    1    2    0    0 -0.89180887402E+01  0.23134416132E+02  0.14514965689E+04  0.14517427537E+04  0.10000000000E+02 0.  1.
</event>
<event>
 5    1  0.9130022E-009  0.3854534E+03  0.7957747E-01  0.3427752E+00
         13   -1    0    0    0    0  0.00000000000E+00  0.00000000000E+00  0.14999999963E+04  0.15000000000E+04  0.10566000000E+00 0. -1.
        994   -1    0    0    0    0 -0.00000000000E+00 -0.00000000000E+00  0.11368683772E-12  0.17120000000E+03  0.17120000000E+03 0.  0.
         13    1    1    2    0    0  0.55019504788E+01 -0.13026527156E+02  0.72423982016E+02  0.73791640475E+02  0.10566000000E+00 0. -1.
        994    1    1    2    0    0 -0.58241209107E+00  0.78861891901E+01  0.16105651125E+01  0.17139009628E+03  0.17120000000E+03 0.  0.
        998    1    1    2    0    0 -0.49195383877E+01  0.51403379661E+01  0.14259654491E+04  0.14260182632E+04  0.10000000000E+02 0. -1.
</event>
<event>
 5    1  0.9130022E-009  0.3784630E+03  0.7957747E-01  0.3457878E+00
         13   -1    0    0    0    0  0.00000000000E+00  0.00000000000E+00  0.14999999963E+04  0.15000000000E+04  0.10566000000E+00 0. -1.
        994   -1    0    0    0    0 -0.00000000000E+00 -0.00000000000E+00  0.11368683772E-12  0.17120000000E+03  0.17120000000E+03 0.  0.
         13    1    1    2    0    0  0.13410884736E+02 -0.36094554646E+01  0.17470157723E+02  0.22318099673E+02  0.10566000000E+00 0. -1.
        994    1    1    2    0    0 -0.64138714515E+01  0.18800522526E+02  0.62379854601E+01  0.17246144455E+03  0.17120000000E+03 0.  0.
        998    1    1    2    0    0 -0.69970132840E+01 -0.15191067062E+02  0.14762918531E+04  0.14764204558E+04  0.10000000000E+02 0. -1.
</event>
<event>
 5    1  0.9130022E-009  0.3803483E+03  0.7957747E-01  0.3449643E+00
         13   -1    0    0    0    0  0.00000000000E+00  0.00000000000E+00  0.14999999963E+04  0.15000000000E+04  0.10566000000E+00 0.  1.
        994   -1    0    0    0    0 -0.00000000000E+00 -0.00000000000E+00  0.11368683772E-12  0.17120000000E+03  0.17120000000E+03 0.  0.
         13    1    1    2    0    0  0.11401519197E+02  0.16800210690E+01  0.14847347997E+02  0.18795531846E+02  0.10566000000E+00 0.  1.
        994    1    1    2    0    0 -0.13128057099E+02 -0.11174268436E+02  0.49504434421E+01  0.17213702986E+03  0.17120000000E+03 0.  0.
        998    1    1    2    0    0  0.17265379017E+01  0.94942473665E+01  0.14802022048E+04  0.14802674383E+04  0.10000000000E+02 0.  1.
</event>
<event>
 5    1  0.9130022E-009  0.3803244E+03  0.7957747E-01  0.3449747E+00
         13   -1    0    0    0    0  0.00000000000E+00  0.00000000000E+00  0.14999999963E+04  0.15000000000E+04  0.10566000000E+00 0. -1.
        994   -1    0    0    0    0 -0.00000000000E+00 -0.00000000000E+00  0.11368683772E-12  0.17120000000E+03  0.17120000000E+03 0.  0.
         13    1    1    2    0    0 -0.44585807234E+01 -0.13579797873E+02  0.24057855957E+02  0.27983592507E+02  0.10566000000E+00 0. -1.
        994    1    1    2    0    0  0.20507957099E+01  0.10746031227E+02  0.43692244057E+01  0.17160481658E+03  0.17120000000E+03 0.  0.
        998    1    1    2    0    0  0.24077850135E+01  0.28337666458E+01  0.14715729159E+04  0.14716115909E+04  0.10000000000E+02 0. -1.
</event>
<event>
 5    1  0.9130022E-009  0.3795247E+03  0.7957747E-01  0.3453230E+00
         13   -1    0    0    0    0  0.00000000000E+00  0.00000000000E+00  0.14999999963E+04  0.15000000000E+04  0.10566000000E+00 0.  1.
        994   -1    0    0    0    0 -0.00000000000E+00 -0.00000000000E+00  0.11368683772E-12  0.17120000000E+03  0.17120000000E+03 0.  0.
         13    1    1    2    0    0  0.16482449581E+02 -0.19803954554E+01  0.29204500513E+02  0.33593260106E+02  0.10566000000E+00 0.  1.
        994    1    1    2    0    0 -0.19356227814E+02 -0.14368354607E+02  0.63213383040E+01  0.17300437130E+03  0.17120000000E+03 0.  0.
        998    1    1    2    0    0  0.28737782334E+01  0.16348750063E+02  0.14644741575E+04  0.14646023686E+04  0.10000000000E+02 0.  1.
</event>
<event>
 5    1  0.9130022E-009  0.3824263E+03  0.7957747E-01  0.3440661E+00
         13   -1    0    0    0    0  0.00000000000E+00  0.00000000000E+00  0.14999999963E+04  0.15000000000E+04  0.10566000000E+00 0. -1.
        994   -1    0    0    0    0 -0.00000000000E+00 -0.00000000000E+00  0.11368683772E-12  0.17120000000E+03  0.17120000000E+03 0.  0.
         13    1    1    2    0    0 -0.48057331823E+01 -0.64658361877E+02  0.38611657565E+03  0.39152243867E+03  0.10566000000E+00 0. -1.
        994    1    1    2    0    0  0.54981237924E+01  0.91213289213E+02  0.31117465989E+02  0.19653964024E+03  0.17120000000E+03 0.  0.
        998    1    1    2    0    0 -0.69239061009E+00 -0.26554927336E+02  0.10827659546E+04  0.10831379211E+04  0.10000000000E+02 0. -1.
</event>
<event>
 5    1  0.9130022E-009  0.3746130E+03  0.7957747E-01  0.3474956E+00
         13   -1    0    0    0    0  0.00000000000E+00  0.00000000000E+00  0.14999999963E+04  0.15000000000E+04  0.10566000000E+00 0.  1.
        994   -1    0    0    0    0 -0.00000000000E+00 -0.00000000000E+00  0.11368683772E-12  0.17120000000E+03  0.17120000000E+03 0.  0.
         13    1    1    2    0    0 -0.33325370397E+02 -0.84572850285E+00  0.89126691193E+02  0.95157100711E+02  0.10566000000E+00 0.  1.
        994    1    1    2    0    0 -0.12056859464E+02  0.26060776636E+02  0.96891312709E+01  0.17386158634E+03  0.17120000000E+03 0.  0.
        998    1    1    2    0    0  0.45382229861E+02 -0.25215048133E+02  0.14011841738E+04  0.14021813130E+04  0.10000000000E+02 0.  1.
</event>
<event>
 5    1  0.9130022E-009  0.2970299E+03  0.7957747E-01  0.3917454E+00
         13   -1    0    0    0    0  0.00000000000E+00  0.00000000000E+00  0.14999999963E+04  0.15000000000E+04  0.10566000000E+00 0. -1.
        994   -1    0    0    0    0 -0.00000000000E+00 -0.00000000000E+00  0.11368683772E-12  0.17120000000E+03  0.17120000000E+03 0.  0.
         13    1    1    2    0    0  0.28914961282E+02 -0.20327975217E+03  0.57652665992E+03  0.61199814819E+03  0.10566000000E+00 0. -1.
        994    1    1    2    0    0 -0.12409165068E+01  0.20359379412E+03  0.19424997018E+03  0.32938497809E+03  0.17120000000E+03 0.  0.
        998    1    1    2    0    0 -0.27674044775E+02 -0.31404194853E+00  0.72922336618E+03  0.72981687372E+03  0.10000000000E+02 0. -1.
</event>
<event>
 5    1  0.9130022E-009  0.3811688E+03  0.7957747E-01  0.3446085E+00
         13   -1    0    0    0    0  0.00000000000E+00  0.00000000000E+00  0.14999999963E+04  0.15000000000E+04  0.10566000000E+00 0.  1.
        994   -1    0    0    0    0 -0.00000000000E+00 -0.00000000000E+00  0.11368683772E-12  0.17120000000E+03  0.17120000000E+03 0.  0.
         13    1    1    2    0    0 -0.23613380346E+02 -0.10021586937E+01  0.80294761784E+02  0.83700991556E+02  0.10566000000E+00 0.  1.
        994    1    1    2    0    0  0.75477424413E+01  0.10190406377E+02  0.40800175426E+01  0.17171749865E+03  0.17120000000E+03 0.  0.
        998    1    1    2    0    0  0.16065637904E+02 -0.91882476833E+01  0.14156252170E+04  0.14157815098E+04  0.10000000000E+02 0.  1.
</event>
<event>
 5    1  0.9130022E-009  0.3823533E+03  0.7957747E-01  0.3440975E+00
         13   -1    0    0    0    0  0.00000000000E+00  0.00000000000E+00  0.14999999963E+04  0.15000000000E+04  0.10566000000E+00 0. -1.
        994   -1    0    0    0    0 -0.00000000000E+00 -0.00000000000E+00  0.11368683772E-12  0.17120000000E+03  0.17120000000E+03 0.  0.
         13    1    1    2    0    0 -0.37628253090E+02  0.48568568014E+01  0.33561205384E+02  0.50654122828E+02  0.10566000000E+00 0. -1.
        994    1    1    2    0    0  0.32839116758E+02 -0.49960123718E+01  0.21669252954E+02  0.17573378802E+03  0.17120000000E+03 0.  0.
        998    1    1    2    0    0  0.47891363321E+01  0.13915557035E+00  0.14447695379E+04  0.14448120892E+04  0.10000000000E+02 0. -1.
</event>
<event>
 5    1  0.9130022E-009  0.3799600E+03  0.7957747E-01  0.3451333E+00
         13   -1    0    0    0    0  0.00000000000E+00  0.00000000000E+00  0.14999999963E+04  0.15000000000E+04  0.10566000000E+00 0.  1.
        994   -1    0    0    0    0 -0.00000000000E+00 -0.00000000000E+00  0.11368683772E-12  0.17120000000E+03  0.17120000000E+03 0.  0.
         13    1    1    2    0    0  0.12064725800E+02  0.19875343816E+02  0.65536958881E+02  0.69539133183E+02  0.10566000000E+00 0.  1.
        994    1    1    2    0    0 -0.25104471729E+02  0.60292726351E+01  0.63851893861E+01  0.17325356352E+03  0.17120000000E+03 0.  0.
        998    1    1    2    0    0  0.13039745929E+02 -0.25904616451E+02  0.14280778480E+04  0.14284073033E+04  0.10000000000E+02 0.  1.
</event>
<event>
 5    1  0.9130022E-009  0.3690273E+03  0.7957747E-01  0.3500373E+00
         13   -1    0    0    0    0  0.00000000000E+00  0.00000000000E+00  0.14999999963E+04  0.15000000000E+04  0.10566000000E+00 0.  1.
        994   -1    0    0    0    0 -0.00000000000E+00 -0.00000000000E+00  0.11368683772E-12  0.17120000000E+03  0.17120000000E+03 0.  0.
         13    1    1    2    0    0 -0.14978745068E+02  0.91593936149E+01  0.11269613952E+02  0.20863189063E+02  0.10566000000E+00 0.  1.
        994    1    1    2    0    0  0.16448439476E+02 -0.95676930461E+01  0.11035600095E+02  0.17260740535E+03  0.17120000000E+03 0.  0.
        998    1    1    2    0    0 -0.14696944089E+01  0.40829943118E+00  0.14776947822E+04  0.14777294056E+04  0.10000000000E+02 0.  1.
</event>
<event>
 5    1  0.9130022E-009  0.3785495E+03  0.7957747E-01  0.3457499E+00
         13   -1    0    0    0    0  0.00000000000E+00  0.00000000000E+00  0.14999999963E+04  0.15000000000E+04  0.10566000000E+00 0. -1.
        994   -1    0    0    0    0 -0.00000000000E+00 -0.00000000000E+00  0.11368683772E-12  0.17120000000E+03  0.17120000000E+03 0.  0.
         13    1    1    2    0    0  0.79167630364E+01  0.18463034091E+02  0.40202280064E+02  0.44942109999E+02  0.10566000000E+00 0. -1.
        994    1    1    2    0    0 -0.13433308268E+00 -0.89958319365E+01  0.51390656979E+01  0.17151324449E+03  0.17120000000E+03 0.  0.
        998    1    1    2    0    0 -0.77824299538E+01 -0.94672021542E+01  0.14546586505E+04  0.14547446455E+04  0.10000000000E+02 0. -1.
</event>
<event>
 5    1  0.9130022E-009  0.3811235E+03  0.7957747E-01  0.3446281E+00
         13   -1    0    0    0    0  0.00000000000E+00  0.00000000000E+00  0.14999999963E+04  0.15000000000E+04  0.10566000000E+00 0.  1.
        994   -1    0    0    0    0 -0.00000000000E+00 -0.00000000000E+00  0.11368683772E-12  0.17120000000E+03  0.17120000000E+03 0.  0.
         13    1    1    2    0    0  0.58928427444E+01  0.10703844431E+02  0.19255419409E+02  0.22805267415E+02  0.10566000000E+00 0.  1.
        994    1    1    2    0    0 -0.68633984204E+01 -0.10556335683E+02  0.40952818753E+01  0.17171125122E+03  0.17120000000E+03 0.  0.
        998    1    1    2    0    0  0.97055567602E+00 -0.14750874792E+00  0.14766492950E+04  0.14766834814E+04  0.10000000000E+02 0.  0.
</event>
<event>
 5    1  0.9130022E-009  0.3859743E+03  0.7957747E-01  0.3425550E+00
         13   -1    0    0    0    0  0.00000000000E+00  0.00000000000E+00  0.14999999963E+04  0.15000000000E+04  0.10566000000E+00 0. -1.
        994   -1    0    0    0    0 -0.00000000000E+00 -0.00000000000E+00  0.11368683772E-12  0.17120000000E+03  0.17120000000E+03 0.  0.
         13    1    1    2    0    0 -0.11302084000E+02 -0.30592274256E+01  0.60608218330E+02  0.61728950002E+02  0.10566000000E+00 0. -1.
        994    1    1    2    0    0  0.56456598957E+01  0.77873494363E+01  0.14505191653E+01  0.17147612164E+03  0.17120000000E+03 0.  0.
        998    1    1    2    0    0  0.56564241042E+01 -0.47281220108E+01  0.14379412588E+04  0.14379949284E+04  0.10000000000E+02 0. -1.
</event>
<event>
 5    1  0.9130022E-009  0.3836014E+03  0.7957747E-01  0.3435626E+00
         13   -1    0    0    0    0  0.00000000000E+00  0.00000000000E+00  0.14999999963E+04  0.15000000000E+04  0.10566000000E+00 0. -1.
        994   -1    0    0    0    0 -0.00000000000E+00 -0.00000000000E+00  0.11368683772E-12  0.17120000000E+03  0.17120000000E+03 0.  0.
         13    1    1    2    0    0  0.62781449520E+01 -0.19481532550E+02  0.87802873737E+02  0.90157090764E+02  0.10566000000E+00 0. -1.
        994    1    1    2    0    0 -0.14353086931E+01  0.16347396875E+02  0.32162801302E+01  0.17201477249E+03  0.17120000000E+03 0.  0.
        998    1    1    2    0    0 -0.48428362589E+01  0.31341356752E+01  0.14089808424E+04  0.14090281367E+04  0.10000000000E+02 0. -1.
</event>
<event>
 5    1  0.9130022E-009  0.3936177E+03  0.7957747E-01  0.3393926E+00
         13   -1    0    0    0    0  0.00000000000E+00  0.00000000000E+00  0.14999999963E+04  0.15000000000E+04  0.10566000000E+00 0.  1.
        994   -1    0    0    0    0 -0.00000000000E+00 -0.00000000000E+00  0.11368683772E-12  0.17120000000E+03  0.17120000000E+03 0.  0.
         13    1    1    2    0    0  0.20416797935E+02 -0.89980115280E+02  0.22269989038E+03  0.24105708686E+03  0.10566000000E+00 0.  1.
        994    1    1    2    0    0  0.22861336975E+02 -0.24077558216E+01  0.26037075960E+02  0.17468774239E+03  0.17120000000E+03 0.  0.
        998    1    1    2    0    0 -0.43278134910E+02  0.92387871101E+02  0.12512630299E+04  0.12554551708E+04  0.10000000000E+02 0.  1.
</event>
<event>
 5    1  0.9130022E-009  0.3828500E+03  0.7957747E-01  0.3438842E+00
         13   -1    0    0    0    0  0.00000000000E+00  0.00000000000E+00  0.14999999963E+04  0.15000000000E+04  0.10566000000E+00 0. -1.
        994   -1    0    0    0    0 -0.00000000000E+00 -0.00000000000E+00  0.11368683772E-12  0.17120000000E+03  0.17120000000E+03 0.  0.
         13    1    1    2    0    0 -0.13685311251E+02 -0.19941138636E+02  0.10504564541E+03  0.10779394945E+03  0.10566000000E+00 0. -1.
        994    1    1    2    0    0  0.64125333215E+01  0.18044650390E+02  0.39167979607E+01  0.17231224941E+03  0.17120000000E+03 0.  0.
        998    1    1    2    0    0  0.72727779290E+01  0.18964882469E+01  0.13910375529E+04  0.13910938011E+04  0.10000000000E+02 0.  0.
</event>
<event>
 5    1  0.9130022E-009  0.3841311E+03  0.7957747E-01  0.3433366E+00
         13   -1    0    0    0    0  0.00000000000E+00  0.00000000000E+00  0.14999999963E+04  0.15000000000E+04  0.10566000000E+00 0. -1.
        994   -1    0    0    0    0 -0.00000000000E+00 -0.00000000000E+00  0.11368683772E-12  0.17120000000E+03  0.17120000000E+03 0.  0.
         13    1    1    2    0    0 -0.98394989034E+01  0.14310020745E+02  0.73833005899E+02  0.75847981888E+02  0.10566000000E+00 0. -1.
        994    1    1    2    0    0  0.20851346110E+02  0.31747484378E+01  0.35306420109E+01  0.17253047005E+03  0.17120000000E+03 0.  0.
        998    1    1    2    0    0 -0.11011847207E+02 -0.17484769183E+02  0.14226363484E+04  0.14228215481E+04  0.10000000000E+02 0. -1.
</event>
<event>
 5    1  0.9130022E-009  0.3834430E+03  0.7957747E-01  0.3436303E+00
         13   -1    0    0    0    0  0.00000000000E+00  0.00000000000E+00  0.14999999963E+04  0.15000000000E+04  0.10566000000E+00 0.  1.
        994   -1    0    0    0    0 -0.00000000000E+00 -0.00000000000E+00  0.11368683772E-12  0.17120000000E+03  0.17120000000E+03 0.  0.
         13    1    1    2    0    0 -0.16540004207E+02  0.49456703609E+01  0.71532063270E+02  0.73585858928E+02  0.10566000000E+00 0.  1.
        994    1    1    2    0    0 -0.19800676891E+02 -0.11972238661E+02  0.41768318666E+01  0.17280708096E+03  0.17120000000E+03 0.  0.
        998    1    1    2    0    0  0.36340681099E+02  0.70265683003E+01  0.14242911011E+04  0.14248070601E+04  0.10000000000E+02 0.  1.
</event>
<event>
 5    1  0.9130022E-009  0.3717918E+03  0.7957747E-01  0.3487696E+00
         13   -1    0    0    0    0  0.00000000000E+00  0.00000000000E+00  0.14999999963E+04  0.15000000000E+04  0.10566000000E+00 0. -1.
        994   -1    0    0    0    0 -0.00000000000E+00 -0.00000000000E+00  0.11368683772E-12  0.17120000000E+03  0.17120000000E+03 0.  0.
         13    1    1    2    0    0  0.21404856796E+02 -0.10093878320E+01  0.23781030429E+02  0.32011487478E+02  0.10566000000E+00 0. -1.
        994    1    1    2    0    0 -0.19750875569E+02 -0.71526098007E+01  0.98533124991E+01  0.17276511419E+03  0.17120000000E+03 0.  0.
        998    1    1    2    0    0 -0.16539812273E+01  0.81619976327E+01  0.14663656534E+04  0.14664233983E+04  0.10000000000E+02 0. -1.
</event>
<event>
 5    1  0.9130022E-009  0.3824087E+03  0.7957747E-01  0.3440737E+00
         13   -1    0    0    0    0  0.00000000000E+00  0.00000000000E+00  0.14999999963E+04  0.15000000000E+04  0.10566000000E+00 0.  1.
        994   -1    0    0    0    0 -0.00000000000E+00 -0.00000000000E+00  0.11368683772E-12  0.17120000000E+03  0.17120000000E+03 0.  0.
         13    1    1    2    0    0 -0.12007909757E+02 -0.19482809633E+02  0.79789299245E+02  0.83006705789E+02  0.10566000000E+00 0.  1.
        994    1    1    2    0    0  0.21933508122E+02  0.26863069882E+02  0.69212228721E+01  0.17481432043E+03  0.17120000000E+03 0.  0.
        998    1    1    2    0    0 -0.99255983644E+01 -0.73802602492E+01  0.14132894742E+04  0.14133789738E+04  0.10000000000E+02 0.  1.
</event>
<event>
 5    1  0.9130022E-009  0.3790506E+03  0.7957747E-01  0.3455303E+00
         13   -1    0    0    0    0  0.00000000000E+00  0.00000000000E+00  0.14999999963E+04  0.15000000000E+04  0.10566000000E+00 0. -1.
        994   -1    0    0    0    0 -0.00000000000E+00 -0.00000000000E+00  0.11368683772E-12  0.17120000000E+03  0.17120000000E+03 0.  0.
         13    1    1    2    0    0  0.19742588320E+02 -0.12163917867E+02  0.13687097585E+02  0.26927281626E+02  0.10566000000E+00 0. -1.
        994    1    1    2    0    0  0.13794192181E+03 -0.40328804797E+02  0.94738801280E+02  0.24277410644E+03  0.17120000000E+03 0.  0.
        998    1    1    2    0    0 -0.15768451013E+03  0.52492722664E+02  0.13915740974E+04  0.14014986119E+04  0.10000000000E+02 0. -1.
</event>
<event>
 5    1  0.9130022E-009  0.3753026E+03  0.7957747E-01  0.3471871E+00
         13   -1    0    0    0    0  0.00000000000E+00  0.00000000000E+00  0.14999999963E+04  0.15000000000E+04  0.10566000000E+00 0.  1.
        994   -1    0    0    0    0 -0.00000000000E+00 -0.00000000000E+00  0.11368683772E-12  0.17120000000E+03  0.17120000000E+03 0.  0.
         13    1    1    2    0    0 -0.18191638433E+02  0.54670408870E+01  0.68460344304E+01  0.20191671461E+02  0.10566000000E+00 0.  1.
        994    1    1    2    0    0  0.19533992097E+02 -0.84306724627E+01  0.15384605531E+02  0.17320155650E+03  0.17120000000E+03 0.  0.
        998    1    1    2    0    0 -0.13423536641E+01  0.29636315757E+01  0.14777693563E+04  0.14778067720E+04  0.10000000000E+02 0.  1.
</event>
<event>
 5    1  0.9130022E-009  0.3838791E+03  0.7957747E-01  0.3434440E+00
         13   -1    0    0    0    0  0.00000000000E+00  0.00000000000E+00  0.14999999963E+04  0.15000000000E+04  0.10566000000E+00 0.  1.
        994   -1    0    0    0    0 -0.00000000000E+00 -0.00000000000E+00  0.11368683772E-12  0.17120000000E+03  0.17120000000E+03 0.  0.
         13    1    1    2    0    0 -0.14060696939E+02 -0.84023314529E+01  0.57156491742E+02  0.59457363585E+02  0.10566000000E+00 0.  1.
        994    1    1    2    0    0  0.16522195009E+02  0.16902614058E+02  0.40338634750E+01  0.17287103096E+03  0.17120000000E+03 0.  0.
        998    1    1    2    0    0 -0.24614980706E+01 -0.85002826055E+01  0.14388096411E+04  0.14388716055E+04  0.10000000000E+02 0.  1.
</event>
<event>
 5    1  0.9130022E-009  0.3754763E+03  0.7957747E-01  0.3471095E+00
         13   -1    0    0    0    0  0.00000000000E+00  0.00000000000E+00  0.14999999963E+04  0.15000000000E+04  0.10566000000E+00 0.  1.
        994   -1    0    0    0    0 -0.00000000000E+00 -0.00000000000E+00  0.11368683772E-12  0.17120000000E+03  0.17120000000E+03 0.  0.
         13    1    1    2    0    0  0.42557918094E+02 -0.31906257145E+02  0.23056844735E+03  0.23662418666E+03  0.10566000000E+00 0.  1.
        994    1    1    2    0    0 -0.73467942071E+01  0.27466815080E+02  0.91827068726E+01  0.17378769640E+03  0.17120000000E+03 0.  0.
        998    1    1    2    0    0 -0.35211123887E+02  0.44394420656E+01  0.12602488421E+04  0.12607881169E+04  0.10000000000E+02 0.  1.
</event>
<event>
 5    1  0.9130022E-009  0.3768967E+03  0.7957747E-01  0.3464783E+00
         13   -1    0    0    0    0  0.00000000000E+00  0.00000000000E+00  0.14999999963E+04  0.15000000000E+04  0.10566000000E+00 0. -1.
        994   -1    0    0    0    0 -0.00000000000E+00 -0.00000000000E+00  0.11368683772E-12  0.17120000000E+03  0.17120000000E+03 0.  0.
         13    1    1    2    0    0 -0.13845694865E+02 -0.13370836631E+02  0.31203268788E+02  0.36662483353E+02  0.10566000000E+00 0. -1.
        994    1    1    2    0    0  0.73990935796E+01 -0.69220379113E+01  0.60547641398E+01  0.17160641411E+03  0.17120000000E+03 0.  0.
        998    1    1    2    0    0  0.64466012856E+01  0.20292874542E+02  0.14627419634E+04  0.14629311025E+04  0.10000000000E+02 0. -1.
</event>
<event>
 5    1  0.9130022E-009  0.2613357E+03  0.7957747E-01  0.4217659E+00
         13   -1    0    0    0    0  0.00000000000E+00  0.00000000000E+00  0.14999999963E+04  0.15000000000E+04  0.10566000000E+00 0. -1.
        994   -1    0    0    0    0 -0.00000000000E+00 -0.00000000000E+00  0.11368683772E-12  0.17120000000E+03  0.17120000000E+03 0.  0.
         13    1    1    2    0    0 -0.10314428207E+03  0.78848848027E+02  0.59104083063E+03  0.60513234783E+03  0.10566000000E+00 0. -1.
        994    1    1    2    0    0 -0.38601675206E+02 -0.74224597776E+02  0.52168376576E+02  0.19756102793E+03  0.17120000000E+03 0.  0.
        998    1    1    2    0    0  0.14174595728E+03 -0.46242502511E+01  0.85679078908E+03  0.86850662423E+03  0.10000000000E+02 0. -1.
</event>
<event>
 5    1  0.9130022E-009  0.3836266E+03  0.7957747E-01  0.3435518E+00
         13   -1    0    0    0    0  0.00000000000E+00  0.00000000000E+00  0.14999999963E+04  0.15000000000E+04  0.10566000000E+00 0. -1.
        994   -1    0    0    0    0 -0.00000000000E+00 -0.00000000000E+00  0.11368683772E-12  0.17120000000E+03  0.17120000000E+03 0.  0.
         13    1    1    2    0    0 -0.58604318953E+01 -0.86661970746E+01  0.22815164952E+02  0.25099612538E+02  0.10566000000E+00 0. -1.
        994    1    1    2    0    0  0.55428768172E+01  0.60547362704E+01  0.25361429217E+01  0.17141544661E+03  0.17120000000E+03 0.  0.
        998    1    1    2    0    0  0.31755507810E+00  0.26114608043E+01  0.14746486884E+04  0.14746849409E+04  0.10000000000E+02 0. -1.
</event>
<event>
 5    1  0.9130022E-009  0.3834666E+03  0.7957747E-01  0.3436202E+00
         13   -1    0    0    0    0  0.00000000000E+00  0.00000000000E+00  0.14999999963E+04  0.15000000000E+04  0.10566000000E+00 0.  1.
        994   -1    0    0    0    0 -0.00000000000E+00 -0.00000000000E+00  0.11368683772E-12  0.17120000000E+03  0.17120000000E+03 0.  0.
         13    1    1    2    0    0  0.10931910520E+02  0.54626181197E+01  0.29990434802E+02  0.32384937980E+02  0.10566000000E+00 0.  1.
        994    1    1    2    0    0 -0.14667073568E+02  0.16106168476E+01  0.31132728604E+01  0.17186288023E+03  0.17120000000E+03 0.  0.
        998    1    1    2    0    0  0.37351630484E+01 -0.70732349673E+01  0.14668962886E+04  0.14669521818E+04  0.10000000000E+02 0.  1.
</event>
<event>
 5    1  0.9130022E-009  0.3802523E+03  0.7957747E-01  0.3450061E+00
         13   -1    0    0    0    0  0.00000000000E+00  0.00000000000E+00  0.14999999963E+04  0.15000000000E+04  0.10566000000E+00 0.  1.
        994   -1    0    0    0    0 -0.00000000000E+00 -0.00000000000E+00  0.11368683772E-12  0.17120000000E+03  0.17120000000E+03 0.  0.
         13    1    1    2    0    0  0.91331644173E+00  0.16886049883E+02  0.36209826106E+02  0.39964177688E+02  0.10566000000E+00 0.  1.
        994    1    1    2    0    0 -0.85529169325E+01  0.67184010101E+01  0.44010446294E+01  0.17160156903E+03  0.17120000000E+03 0.  0.
        998    1    1    2    0    0  0.76396004908E+01 -0.23604450893E+02  0.14593891255E+04  0.14596342533E+04  0.10000000000E+02 0.  1.
</event>
<event>
 5    1  0.9130022E-009  0.3844764E+03  0.7957747E-01  0.3431896E+00
         13   -1    0    0    0    0  0.00000000000E+00  0.00000000000E+00  0.14999999963E+04  0.15000000000E+04  0.10566000000E+00 0.  1.
        994   -1    0    0    0    0 -0.00000000000E+00 -0.00000000000E+00  0.11368683772E-12  0.17120000000E+03  0.17120000000E+03 0.  0.
         13    1    1    2    0    0  0.83745943188E+01  0.12620818609E+02  0.65158233584E+02  0.66895631100E+02  0.10566000000E+00 0.  1.
        994    1    1    2    0    0 -0.41230921496E+01  0.57987095922E+01  0.20571255913E+01  0.17136013739E+03  0.17120000000E+03 0.  0.
        998    1    1    2    0    0 -0.42515021691E+01 -0.18419528202E+02  0.14327846371E+04  0.14329442315E+04  0.10000000000E+02 0.  1.
</event>
<event>
 5    1  0.9130022E-009  0.3833600E+03  0.7957747E-01  0.3436658E+00
         13   -1    0    0    0    0  0.00000000000E+00  0.00000000000E+00  0.14999999963E+04  0.15000000000E+04  0.10566000000E+00 0. -1.
        994   -1    0    0    0    0 -0.00000000000E+00 -0.00000000000E+00  0.11368683772E-12  0.17120000000E+03  0.17120000000E+03 0.  0.
         13    1    1    2    0    0  0.13086369132E+02  0.14560289236E+02  0.77977461510E+02  0.80397454856E+02  0.10566000000E+00 0. -1.
        994    1    1    2    0    0 -0.24351692991E+02  0.53570114549E+01  0.45047669735E+01  0.17306483019E+03  0.17120000000E+03 0.  0.
        998    1    1    2    0    0  0.11265323859E+02 -0.19917300691E+02  0.14175177678E+04  0.14177377150E+04  0.10000000000E+02 0. -1.
</event>
<event>
 5    1  0.9130022E-009  0.3819270E+03  0.7957747E-01  0.3442811E+00
         13   -1    0    0    0    0  0.00000000000E+00  0.00000000000E+00  0.14999999963E+04  0.15000000000E+04  0.10566000000E+00 0.  1.
        994   -1    0    0    0    0 -0.00000000000E+00 -0.00000000000E+00  0.11368683772E-12  0.17120000000E+03  0.17120000000E+03 0.  0.
         13    1    1    2    0    0 -0.15681287486E+02 -0.51198472734E+01  0.40899395970E+02  0.44100877180E+02  0.10566000000E+00 0.  1.
        994    1    1    2    0    0  0.16953699487E+02  0.37590321827E+01  0.41659209198E+01  0.17212888528E+03  0.17120000000E+03 0.  0.
        998    1    1    2    0    0 -0.12724120007E+01  0.13608150907E+01  0.14549346794E+04  0.14549702375E+04  0.10000000000E+02 0.  1.
</event>
<event>
 5    1  0.9130022E-009  0.3802775E+03  0.7957747E-01  0.3449951E+00
         13   -1    0    0    0    0  0.00000000000E+00  0.00000000000E+00  0.14999999963E+04  0.15000000000E+04  0.10566000000E+00 0. -1.
        994   -1    0    0    0    0 -0.00000000000E+00 -0.00000000000E+00  0.11368683772E-12  0.17120000000E+03  0.17120000000E+03 0.  0.
         13    1    1    2    0    0 -0.79975114303E+01 -0.13937641652E+02  0.30301996258E+02  0.34299273828E+02  0.10566000000E+00 0. -1.
        994    1    1    2    0    0  0.63938160768E+01  0.14484322958E+02  0.48307961955E+01  0.17199841013E+03  0.17120000000E+03 0.  0.
        998    1    1    2    0    0  0.16036953536E+01 -0.54668130587E+00  0.14648672038E+04  0.14649023160E+04  0.10000000000E+02 0. -1.
</event>
<event>
 5    1  0.9130022E-009  0.3775010E+03  0.7957747E-01  0.3462112E+00
         13   -1    0    0    0    0  0.00000000000E+00  0.00000000000E+00  0.14999999963E+04  0.15000000000E+04  0.10566000000E+00 0.  1.
        994   -1    0    0    0    0 -0.00000000000E+00 -0.00000000000E+00  0.11368683772E-12  0.17120000000E+03  0.17120000000E+03 0.  0.
         13    1    1    2    0    0 -0.36342038046E+02 -0.39490648465E+02  0.25252675520E+03  0.25816666768E+03  0.10566000000E+00 0.  1.
        994    1    1    2    0    0  0.11677385796E+02  0.40357675184E+02  0.11372922572E+02  0.17664621890E+03  0.17120000000E+03 0.  0.
        998    1    1    2    0    0  0.24664652250E+02 -0.86702671844E+00  0.12361003185E+04  0.12363871134E+04  0.10000000000E+02 0.  1.
</event>
<event>
 5    1  0.1059238E-008  0.3863348E+03  0.7957747E-01  0.3424031E+00
         13   -1    0    0    0    0  0.00000000000E+00  0.00000000000E+00  0.14999999963E+04  0.15000000000E+04  0.10566000000E+00 0.  1.
        994   -1    0    0    0    0 -0.00000000000E+00 -0.00000000000E+00  0.11368683772E-12  0.17120000000E+03  0.17120000000E+03 0.  0.
         13    1    1    2    0    0  0.73951097480E+01  0.73926569043E+01  0.56203680962E+02  0.57168207441E+02  0.10566000000E+00 0.  1.
        994    1    1    2    0    0  0.67691183437E+01 -0.21738836562E+02  0.26682074706E+01  0.17272798647E+03  0.17120000000E+03 0.  0.
        998    1    1    2    0    0 -0.14164228092E+02  0.14346179658E+02  0.14411281078E+04  0.14413038061E+04  0.10000000000E+02 0.  1.
</event>
<event>
 5    1  0.9130022E-009  0.3768801E+03  0.7957747E-01  0.3464857E+00
         13   -1    0    0    0    0  0.00000000000E+00  0.00000000000E+00  0.14999999963E+04  0.15000000000E+04  0.10566000000E+00 0. -1.
        994   -1    0    0    0    0 -0.00000000000E+00 -0.00000000000E+00  0.11368683772E-12  0.17120000000E+03  0.17120000000E+03 0.  0.
         13    1    1    2    0    0 -0.26824478332E+02  0.16829464396E+02  0.86837613238E+02  0.92431411039E+02  0.10566000000E+00 0. -1.
        994    1    1    2    0    0  0.18743034073E+02 -0.88664213770E+00  0.69065868076E+01  0.17236365163E+03  0.17120000000E+03 0.  0.
        998    1    1    2    0    0  0.80814442594E+01 -0.15942822259E+02  0.14062557962E+04  0.14064049373E+04  0.10000000000E+02 0. -1.
</event>
<event>
 5    1  0.9130022E-009  0.4017768E+03  0.7957747E-01  0.3361494E+00
         13   -1    0    0    0    0  0.00000000000E+00  0.00000000000E+00  0.14999999963E+04  0.15000000000E+04  0.10566000000E+00 0.  1.
        994   -1    0    0    0    0 -0.00000000000E+00 -0.00000000000E+00  0.11368683772E-12  0.17120000000E+03  0.17120000000E+03 0.  0.
         13    1    1    2    0    0 -0.57941165026E+02 -0.11923924661E+02  0.51016810316E+02  0.78115841433E+02  0.10566000000E+00 0.  1.
        994    1    1    2    0    0  0.41278267515E+02  0.16848639149E+02  0.36722715949E+02  0.18068140435E+03  0.17120000000E+03 0.  0.
        998    1    1    2    0    0  0.16662897511E+02 -0.49247144877E+01  0.14122604700E+04  0.14124027542E+04  0.10000000000E+02 0.  1.
</event>
<event>
 5    1  0.9130022E-009  0.3839250E+03  0.7957747E-01  0.3434244E+00
         13   -1    0    0    0    0  0.00000000000E+00  0.00000000000E+00  0.14999999963E+04  0.15000000000E+04  0.10566000000E+00 0.  1.
        994   -1    0    0    0    0 -0.00000000000E+00 -0.00000000000E+00  0.11368683772E-12  0.17120000000E+03  0.17120000000E+03 0.  0.
         13    1    1    2    0    0  0.61393344688E+01  0.11353717946E+02  0.38037870200E+02  0.40168259513E+02  0.10566000000E+00 0.  1.
        994    1    1    2    0    0 -0.71648203678E+01 -0.52498866850E+01  0.24251847337E+01  0.17144741900E+03  0.17120000000E+03 0.  0.
        998    1    1    2    0    0  0.10254858991E+01 -0.61038312608E+01  0.14595369413E+04  0.14595843215E+04  0.10000000000E+02 0.  1.
</event>
<event>
 5    1  0.9130022E-009  0.3827055E+03  0.7957747E-01  0.3439462E+00
         13   -1    0    0    0    0  0.00000000000E+00  0.00000000000E+00  0.14999999963E+04  0.15000000000E+04  0.10566000000E+00 0.  1.
        994   -1    0    0    0    0 -0.00000000000E+00 -0.00000000000E+00  0.11368683772E-12  0.17120000000E+03  0.17120000000E+03 0.  0.
         13    1    1    2    0    0  0.13125272616E+02 -0.29647521172E+02  0.18443466470E+03  0.18726293013E+03  0.10566000000E+00 0.  1.
        994    1    1    2    0    0  0.54811056886E+01  0.26606660960E+02  0.52225443365E+01  0.17342050599E+03  0.17120000000E+03 0.  0.
        998    1    1    2    0    0 -0.18606378304E+02  0.30408602122E+01  0.13103427872E+04  0.13105165639E+04  0.10000000000E+02 0.  1.
</event>
<event>
 5    1  0.9130022E-009  0.3849930E+03  0.7957747E-01  0.3429702E+00
         13   -1    0    0    0    0  0.00000000000E+00  0.00000000000E+00  0.14999999963E+04  0.15000000000E+04  0.10566000000E+00 0.  1.
        994   -1    0    0    0    0 -0.00000000000E+00 -0.00000000000E+00  0.11368683772E-12  0.17120000000E+03  0.17120000000E+03 0.  0.
         13    1    1    2    0    0 -0.10421033336E+02 -0.96504939254E+01  0.59111707151E+02  0.60794202480E+02  0.10566000000E+00 0.  1.
        994    1    1    2    0    0  0.11882811999E+02  0.11679842650E+02  0.25471816058E+01  0.17202775381E+03  0.17120000000E+03 0.  0.
        998    1    1    2    0    0 -0.14617786633E+01 -0.20293487246E+01  0.14383411075E+04  0.14383780437E+04  0.10000000000E+02 0.  1.
</event>
<event>
 5    1  0.9130022E-009  0.3849640E+03  0.7957747E-01  0.3429825E+00
         13   -1    0    0    0    0  0.00000000000E+00  0.00000000000E+00  0.14999999963E+04  0.15000000000E+04  0.10566000000E+00 0.  1.
        994   -1    0    0    0    0 -0.00000000000E+00 -0.00000000000E+00  0.11368683772E-12  0.17120000000E+03  0.17120000000E+03 0.  0.
         13    1    1    2    0    0 -0.11793370256E+02 -0.17562255503E+01  0.44501899811E+02  0.46071663319E+02  0.10566000000E+00 0.  1.
        994    1    1    2    0    0 -0.19430210528E+01  0.28635856455E+02  0.43621862153E+01  0.17364405050E+03  0.17120000000E+03 0.  0.
        998    1    1    2    0    0  0.13736391309E+02 -0.26879630904E+02  0.14511359103E+04  0.14514842862E+04  0.10000000000E+02 0.  1.
</event>
<event>
 5    1  0.9130022E-009  0.3817351E+03  0.7957747E-01  0.3443638E+00
         13   -1    0    0    0    0  0.00000000000E+00  0.00000000000E+00  0.14999999963E+04  0.15000000000E+04  0.10566000000E+00 0. -1.
        994   -1    0    0    0    0 -0.00000000000E+00 -0.00000000000E+00  0.11368683772E-12  0.17120000000E+03  0.17120000000E+03 0.  0.
         13    1    1    2    0    0  0.99294661450E+01 -0.12804582827E+02  0.38881437491E+02  0.42122784627E+02  0.10566000000E+00 0. -1.
        994    1    1    2    0    0 -0.12990285419E+02  0.55653842312E+01  0.39239694955E+01  0.17182711821E+03  0.17120000000E+03 0.  0.
        998    1    1    2    0    0  0.30608192737E+01  0.72391985955E+01  0.14571945893E+04  0.14572500972E+04  0.10000000000E+02 0. -1.
</event>
<event>
 5    1  0.9130022E-009  0.2623381E+03  0.7957747E-01  0.4207966E+00
         13   -1    0    0    0    0  0.00000000000E+00  0.00000000000E+00  0.14999999963E+04  0.15000000000E+04  0.10566000000E+00 0.  1.
        994   -1    0    0    0    0 -0.00000000000E+00 -0.00000000000E+00  0.11368683772E-12  0.17120000000E+03  0.17120000000E+03 0.  0.
         13    1    1    2    0    0 -0.42561662895E+02 -0.15549377069E+03  0.48795587358E+03  0.51389761003E+03  0.10566000000E+00 0.  1.
        994    1    1    2    0    0 -0.80151290455E+02  0.13813076597E+03  0.13250733175E+03  0.26902039112E+03  0.17120000000E+03 0.  0.
        998    1    1    2    0    0  0.12271295335E+03  0.17363004716E+02  0.87953679094E+03  0.88828199885E+03  0.10000000000E+02 0.  1.
</event>
<event>
 5    1  0.9130022E-009  0.3723981E+03  0.7957747E-01  0.3484942E+00
         13   -1    0    0    0    0  0.00000000000E+00  0.00000000000E+00  0.14999999963E+04  0.15000000000E+04  0.10566000000E+00 0. -1.
        994   -1    0    0    0    0 -0.00000000000E+00 -0.00000000000E+00  0.11368683772E-12  0.17120000000E+03  0.17120000000E+03 0.  0.
         13    1    1    2    0    0 -0.38578434806E+02  0.89273964316E+01  0.61267130976E+02  0.72949753538E+02  0.10566000000E+00 0. -1.
        994    1    1    2    0    0  0.15318909471E+02 -0.11445626956E+02  0.13502745792E+02  0.17279304242E+03  0.17120000000E+03 0.  0.
        998    1    1    2    0    0  0.23259525335E+02  0.25182305246E+01  0.14252301195E+04  0.14254572040E+04  0.10000000000E+02 0. -1.
</event>
<event>
 5    1  0.9130022E-009  0.3818081E+03  0.7957747E-01  0.3443323E+00
         13   -1    0    0    0    0  0.00000000000E+00  0.00000000000E+00  0.14999999963E+04  0.15000000000E+04  0.10566000000E+00 0. -1.
        994   -1    0    0    0    0 -0.00000000000E+00 -0.00000000000E+00  0.11368683772E-12  0.17120000000E+03  0.17120000000E+03 0.  0.
         13    1    1    2    0    0  0.14709665497E+02 -0.11896301702E+02  0.54504174923E+02  0.57694128829E+02  0.10566000000E+00 0. -1.
        994    1    1    2    0    0 -0.10777773033E+02  0.56768704742E+01  0.37164638435E+01  0.17167305949E+03  0.17120000000E+03 0.  0.
        998    1    1    2    0    0 -0.39318924637E+01  0.62194312279E+01  0.14417793575E+04  0.14418328117E+04  0.10000000000E+02 0. -1.
</event>
<event>
 5    1  0.9130022E-009  0.3762693E+03  0.7957747E-01  0.3467565E+00
         13   -1    0    0    0    0  0.00000000000E+00  0.00000000000E+00  0.14999999963E+04  0.15000000000E+04  0.10566000000E+00 0. -1.
        994   -1    0    0    0    0 -0.00000000000E+00 -0.00000000000E+00  0.11368683772E-12  0.17120000000E+03  0.17120000000E+03 0.  0.
         13    1    1    2    0    0  0.24701226582E+02  0.24029594178E+02  0.11246342315E+03  0.11762484730E+03  0.10566000000E+00 0. -1.
        994    1    1    2    0    0  0.74464189647E+01  0.91728689102E+01  0.65009675662E+01  0.17173029220E+03  0.17120000000E+03 0.  0.
        998    1    1    2    0    0 -0.32147645547E+02 -0.33202463089E+02  0.13810356056E+04  0.13818448605E+04  0.10000000000E+02 0. -1.
</event>
<event>
 5    1  0.9130022E-009  0.3845163E+03  0.7957747E-01  0.3431726E+00
         13   -1    0    0    0    0  0.00000000000E+00  0.00000000000E+00  0.14999999963E+04  0.15000000000E+04  0.10566000000E+00 0.  1.
        994   -1    0    0    0    0 -0.00000000000E+00 -0.00000000000E+00  0.11368683772E-12  0.17120000000E+03  0.17120000000E+03 0.  0.
         13    1    1    2    0    0  0.29594851001E+01  0.11250889865E+02  0.36410594096E+02  0.38224123290E+02  0.10566000000E+00 0.  1.
        994    1    1    2    0    0  0.26890241816E+02 -0.11991407481E+02  0.47310622094E+01  0.17377773709E+03  0.17120000000E+03 0.  0.
        998    1    1    2    0    0 -0.29849726916E+02  0.74051761649E+00  0.14588583400E+04  0.14591981396E+04  0.10000000000E+02 0.  1.
</event>
<event>
 5    1  0.9130022E-009  0.3804866E+03  0.7957747E-01  0.3449042E+00
         13   -1    0    0    0    0  0.00000000000E+00  0.00000000000E+00  0.14999999963E+04  0.15000000000E+04  0.10566000000E+00 0. -1.
        994   -1    0    0    0    0 -0.00000000000E+00 -0.00000000000E+00  0.11368683772E-12  0.17120000000E+03  0.17120000000E+03 0.  0.
         13    1    1    2    0    0  0.31939787432E+02 -0.60371572517E+01  0.16508335867E+03  0.16825315380E+03  0.10566000000E+00 0. -1.
        994    1    1    2    0    0  0.79495654526E+01 -0.95391570216E+01  0.44024798515E+01  0.17170618200E+03  0.17120000000E+03 0.  0.
        998    1    1    2    0    0 -0.39889352884E+02  0.15576314273E+02  0.13305141578E+04  0.13312406642E+04  0.10000000000E+02 0. -1.
</event>
<event>
 5    1  0.9130022E-009  0.3858475E+03  0.7957747E-01  0.3426086E+00
         13   -1    0    0    0    0  0.00000000000E+00  0.00000000000E+00  0.14999999963E+04  0.15000000000E+04  0.10566000000E+00 0.  1.
        994   -1    0    0    0    0 -0.00000000000E+00 -0.00000000000E+00  0.11368683772E-12  0.17120000000E+03  0.17120000000E+03 0.  0.
         13    1    1    2    0    0 -0.14530813925E+01  0.13488557898E+02  0.74381116165E+02  0.75608294821E+02  0.10566000000E+00 0.  1.
        994    1    1    2    0    0  0.28759560237E+01 -0.12761581178E+02  0.17713899102E+01  0.17170820277E+03  0.17120000000E+03 0.  0.
        998    1    1    2    0    0 -0.14228746311E+01 -0.72697671955E+00  0.14238474902E+04  0.14238835024E+04  0.10000000000E+02 0.  1.
</event>
<event>
 5    1  0.9130022E-009  0.3725000E+03  0.7957747E-01  0.3484480E+00
         13   -1    0    0    0    0  0.00000000000E+00  0.00000000000E+00  0.14999999963E+04  0.15000000000E+04  0.10566000000E+00 0. -1.
        994   -1    0    0    0    0 -0.00000000000E+00 -0.00000000000E+00  0.11368683772E-12  0.17120000000E+03  0.17120000000E+03 0.  0.
         13    1    1    2    0    0  0.54206954633E+02  0.45182652660E+02  0.26687679243E+03  0.27604908899E+03  0.10566000000E+00 0. -1.
        994    1    1    2    0    0 -0.50042286866E+02 -0.39816595838E+02  0.22120512916E+02  0.18408788355E+03  0.17120000000E+03 0.  0.
        998    1    1    2    0    0 -0.41646677667E+01 -0.53660568225E+01  0.12110026909E+04  0.12110630275E+04  0.10000000000E+02 0. -1.
</event>
<event>
 5    1  0.9130022E-009  0.3720805E+03  0.7957747E-01  0.3486384E+00
         13   -1    0    0    0    0  0.00000000000E+00  0.00000000000E+00  0.14999999963E+04  0.15000000000E+04  0.10566000000E+00 0. -1.
        994   -1    0    0    0    0 -0.00000000000E+00 -0.00000000000E+00  0.11368683772E-12  0.17120000000E+03  0.17120000000E+03 0.  0.
         13    1    1    2    0    0  0.18744123846E+02 -0.71995803128E+02  0.35208136839E+03  0.35985558072E+03  0.10566000000E+00 0. -1.
        994    1    1    2    0    0  0.57416501368E+02  0.60465267410E+02  0.32445956246E+02  0.19317060664E+03  0.17120000000E+03 0.  0.
        998    1    1    2    0    0 -0.76160625214E+02  0.11530535719E+02  0.11154726716E+04  0.11181738126E+04  0.10000000000E+02 0. -1.
</event>
<event>
 5    1  0.9130022E-009  0.3853791E+03  0.7957747E-01  0.3428066E+00
         13   -1    0    0    0    0  0.00000000000E+00  0.00000000000E+00  0.14999999963E+04  0.15000000000E+04  0.10566000000E+00 0.  1.
        994   -1    0    0    0    0 -0.00000000000E+00 -0.00000000000E+00  0.11368683772E-12  0.17120000000E+03  0.17120000000E+03 0.  0.
         13    1    1    2    0    0  0.70954999511E+01 -0.99615481988E+01  0.49401517770E+02  0.50893021959E+02  0.10566000000E+00 0.  1.
        994    1    1    2    0    0 -0.12049424869E+02  0.12392366485E+02  0.24239441169E+01  0.17208740480E+03  0.17120000000E+03 0.  0.
        998    1    1    2    0    0  0.49539249176E+01 -0.24308182861E+01  0.14481745344E+04  0.14482195732E+04  0.10000000000E+02 0.  1.
</event>
<event>
 5    1  0.9130022E-009  0.3847717E+03  0.7957747E-01  0.3430641E+00
         13   -1    0    0    0    0  0.00000000000E+00  0.00000000000E+00  0.14999999963E+04  0.15000000000E+04  0.10566000000E+00 0.  1.
        994   -1    0    0    0    0 -0.00000000000E+00 -0.00000000000E+00  0.11368683772E-12  0.17120000000E+03  0.17120000000E+03 0.  0.
         13    1    1    2    0    0 -0.69028689191E+01 -0.15021122005E+02  0.79948640712E+02  0.81639941336E+02  0.10566000000E+00 0.  1.
        994    1    1    2    0    0  0.20686813640E+01  0.74686795347E+01  0.19412192831E+01  0.17138631494E+03  0.17120000000E+03 0.  0.
        998    1    1    2    0    0  0.48341875551E+01  0.75524424703E+01  0.14181101363E+04  0.14181737437E+04  0.10000000000E+02 0.  1.
</event>
<event>
 5    1  0.9130022E-009  0.3783774E+03  0.7957747E-01  0.3458254E+00
         13   -1    0    0    0    0  0.00000000000E+00  0.00000000000E+00  0.14999999963E+04  0.15000000000E+04  0.10566000000E+00 0.  1.
        994   -1    0    0    0    0 -0.00000000000E+00 -0.00000000000E+00  0.11368683772E-12  0.17120000000E+03  0.17120000000E+03 0.  0.
         13    1    1    2    0    0  0.95160644245E+02  0.10891673059E+02  0.54882859799E+03  0.55712388020E+03  0.10566000000E+00 0.  1.
        994    1    1    2    0    0 -0.99428453586E+02 -0.56394490322E+01  0.39046092995E+02  0.20187089475E+03  0.17120000000E+03 0.  0.
        998    1    1    2    0    0  0.42678093408E+01 -0.52522240268E+01  0.91212530529E+03  0.91220522505E+03  0.10000000000E+02 0.  0.
</event>
<event>
 5    1  0.9130022E-009  0.3766886E+03  0.7957747E-01  0.3465705E+00
         13   -1    0    0    0    0  0.00000000000E+00  0.00000000000E+00  0.14999999963E+04  0.15000000000E+04  0.10566000000E+00 0.  1.
        994   -1    0    0    0    0 -0.00000000000E+00 -0.00000000000E+00  0.11368683772E-12  0.17120000000E+03  0.17120000000E+03 0.  0.
         13    1    1    2    0    0  0.34571071921E+02 -0.17806636278E+02  0.11995347225E+03  0.12609949238E+03  0.10566000000E+00 0.  1.
        994    1    1    2    0    0 -0.31227221919E+02  0.19620008975E+02  0.10424985522E+02  0.17543718096E+03  0.17120000000E+03 0.  0.
        998    1    1    2    0    0 -0.33438500028E+01 -0.18133726973E+01  0.13696215385E+04  0.13696633267E+04  0.10000000000E+02 0.  1.
</event>
<event>
 5    1  0.9130022E-009  0.3793181E+03  0.7957747E-01  0.3454133E+00
         13   -1    0    0    0    0  0.00000000000E+00  0.00000000000E+00  0.14999999963E+04  0.15000000000E+04  0.10566000000E+00 0.  1.
        994   -1    0    0    0    0 -0.00000000000E+00 -0.00000000000E+00  0.11368683772E-12  0.17120000000E+03  0.17120000000E+03 0.  0.
         13    1    1    2    0    0  0.43309806821E+02 -0.11626510446E+02  0.24581728577E+03  0.24987409682E+03  0.10566000000E+00 0.  1.
        994    1    1    2    0    0 -0.15095174100E+02 -0.29427771412E+01  0.52706293090E+01  0.17197018274E+03  0.17120000000E+03 0.  0.
        998    1    1    2    0    0 -0.28214632720E+02  0.14569287587E+02  0.12489120812E+04  0.12493557204E+04  0.10000000000E+02 0.  1.
</event>
<event>
 5    1  0.9130022E-009  0.4287663E+03  0.7957747E-01  0.3262916E+00
         13   -1    0    0    0    0  0.00000000000E+00  0.00000000000E+00  0.14999999963E+04  0.15000000000E+04  0.10566000000E+00 0.  1.
        994   -1    0    0    0    0 -0.00000000000E+00 -0.00000000000E+00  0.11368683772E-12  0.17120000000E+03  0.17120000000E+03 0.  0.
         13    1    1    2    0    0  0.54772272380E+02  0.34125508303E+02  0.27507718590E+02  0.70151535155E+02  0.10566000000E+00 0.  1.
        994    1    1    2    0    0 -0.72406178322E+02 -0.24298803907E+02  0.72687124816E+02  0.20106204178E+03  0.17120000000E+03 0.  0.
        998    1    1    2    0    0  0.17633905943E+02 -0.98267043960E+01  0.13998051529E+04  0.13999864231E+04  0.10000000000E+02 0.  1.
</event>
<event>
 5    1  0.9130022E-009  0.3710742E+03  0.7957747E-01  0.3490969E+00
         13   -1    0    0    0    0  0.00000000000E+00  0.00000000000E+00  0.14999999963E+04  0.15000000000E+04  0.10566000000E+00 0.  1.
        994   -1    0    0    0    0 -0.00000000000E+00 -0.00000000000E+00  0.11368683772E-12  0.17120000000E+03  0.17120000000E+03 0.  0.
         13    1    1    2    0    0 -0.17870108602E+02  0.40136088346E+02  0.81390509037E+02  0.92491472550E+02  0.10566000000E+00 0.  1.
        994    1    1    2    0    0  0.33425740557E+02 -0.95123325362E+01  0.15758053921E+02  0.17540102869E+03  0.17120000000E+03 0.  0.
        998    1    1    2    0    0 -0.15555631955E+02 -0.30623755810E+02  0.14028514333E+04  0.14033074988E+04  0.10000000000E+02 0.  1.
</event>
<event>
 5    1  0.9130022E-009  0.3850706E+03  0.7957747E-01  0.3429373E+00
         13   -1    0    0    0    0  0.00000000000E+00  0.00000000000E+00  0.14999999963E+04  0.15000000000E+04  0.10566000000E+00 0. -1.
        994   -1    0    0    0    0 -0.00000000000E+00 -0.00000000000E+00  0.11368683772E-12  0.17120000000E+03  0.17120000000E+03 0.  0.
         13    1    1    2    0    0  0.79649256390E+01  0.83459689357E+01  0.40830405766E+02  0.42429098941E+02  0.10566000000E+00 0. -1.
        994    1    1    2    0    0 -0.65468249015E+01 -0.97883731033E+01  0.20511912994E+01  0.17161678400E+03  0.17120000000E+03 0.  0.
        998    1    1    2    0    0 -0.14181007374E+01  0.14424041676E+01  0.14571183992E+04  0.14571541171E+04  0.10000000000E+02 0. -1.
</event>
<event>
 5    1  0.9130022E-009  0.3514448E+03  0.7957747E-01  0.3585770E+00
         13   -1    0    0    0    0  0.00000000000E+00  0.00000000000E+00  0.14999999963E+04  0.15000000000E+04  0.10566000000E+00 0.  1.
        994   -1    0    0    0    0 -0.00000000000E+00 -0.00000000000E+00  0.11368683772E-12  0.17120000000E+03  0.17120000000E+03 0.  0.
         13    1    1    2    0    0 -0.16925889901E+03 -0.12295390507E+03  0.10618768931E+04  0.10822886792E+04  0.10566000000E+00 0.  1.
        994    1    1    2    0    0  0.15243803083E+03  0.98352137900E+02  0.13397252913E+03  0.28314055668E+03  0.17120000000E+03 0.  0.
        998    1    1    2    0    0  0.16820868176E+02  0.24601767174E+02  0.30415057400E+03  0.30577076417E+03  0.10000000000E+02 0.  1.
</event>
<event>
 5    1  0.9130022E-009  0.3752972E+03  0.7957747E-01  0.3471894E+00
         13   -1    0    0    0    0  0.00000000000E+00  0.00000000000E+00  0.14999999963E+04  0.15000000000E+04  0.10566000000E+00 0.  1.
        994   -1    0    0    0    0 -0.00000000000E+00 -0.00000000000E+00  0.11368683772E-12  0.17120000000E+03  0.17120000000E+03 0.  0.
         13    1    1    2    0    0  0.18612507101E+01 -0.70353714190E+02  0.26027626088E+03  0.26962353847E+03  0.10566000000E+00 0.  1.
        994    1    1    2    0    0 -0.33149879505E+02  0.95903636471E+02  0.42335591810E+02  0.20346538854E+03  0.17120000000E+03 0.  0.
        998    1    1    2    0    0  0.31288628795E+02 -0.25549922281E+02  0.11973881436E+04  0.11981110730E+04  0.10000000000E+02 0.  1.
</event>
<event>
 5    1  0.9130022E-009  0.3832451E+03  0.7957747E-01  0.3437149E+00
         13   -1    0    0    0    0  0.00000000000E+00  0.00000000000E+00  0.14999999963E+04  0.15000000000E+04  0.10566000000E+00 0.  1.
        994   -1    0    0    0    0 -0.00000000000E+00 -0.00000000000E+00  0.11368683772E-12  0.17120000000E+03  0.17120000000E+03 0.  0.
         13    1    1    2    0    0 -0.18955073864E+02  0.96036680604E+01  0.10056897524E+03  0.10278937304E+03  0.10566000000E+00 0.  1.
        994    1    1    2    0    0 -0.76043640133E+00  0.81728288166E+01  0.27267814537E+01  0.17141834421E+03  0.17120000000E+03 0.  0.
        998    1    1    2    0    0  0.19715510265E+02 -0.17776496877E+02  0.13967042396E+04  0.13969922827E+04  0.10000000000E+02 0.  1.
</event>
<event>
 5    1  0.9130022E-009  0.3833462E+03  0.7957747E-01  0.3436717E+00
         13   -1    0    0    0    0  0.00000000000E+00  0.00000000000E+00  0.14999999963E+04  0.15000000000E+04  0.10566000000E+00 0.  1.
        994   -1    0    0    0    0 -0.00000000000E+00 -0.00000000000E+00  0.11368683772E-12  0.17120000000E+03  0.17120000000E+03 0.  0.
         13    1    1    2    0    0 -0.19209892762E+02  0.20053036510E+01  0.73603477286E+02  0.76095494317E+02  0.10566000000E+00 0.  1.
        994    1    1    2    0    0  0.16580682480E+02 -0.13984054066E+01  0.33694344551E+01  0.17203972698E+03  0.17120000000E+03 0.  0.
        998    1    1    2    0    0  0.26292102817E+01 -0.60689824444E+00  0.14230270845E+04  0.14230647787E+04  0.10000000000E+02 0.  1.
</event>
<event>
 5    1  0.9130022E-009  0.3858331E+03  0.7957747E-01  0.3426147E+00
         13   -1    0    0    0    0  0.00000000000E+00  0.00000000000E+00  0.14999999963E+04  0.15000000000E+04  0.10566000000E+00 0. -1.
        994   -1    0    0    0    0 -0.00000000000E+00 -0.00000000000E+00  0.11368683772E-12  0.17120000000E+03  0.17120000000E+03 0.  0.
         13    1    1    2    0    0  0.11525075754E+02 -0.30245092177E+01  0.57426675654E+02  0.58649887194E+02  0.10566000000E+00 0. -1.
        994    1    1    2    0    0 -0.10040833776E+02  0.75440821267E+01  0.17345718943E+01  0.17166880980E+03  0.17120000000E+03 0.  0.
        998    1    1    2    0    0 -0.14842419783E+01 -0.45195729090E+01  0.14408387487E+04  0.14408813030E+04  0.10000000000E+02 0. -1.
</event>
<event>
 5    1  0.9130022E-009  0.3815932E+03  0.7957747E-01  0.3444250E+00
         13   -1    0    0    0    0  0.00000000000E+00  0.00000000000E+00  0.14999999963E+04  0.15000000000E+04  0.10566000000E+00 0.  1.
        994   -1    0    0    0    0 -0.00000000000E+00 -0.00000000000E+00  0.11368683772E-12  0.17120000000E+03  0.17120000000E+03 0.  0.
         13    1    1    2    0    0 -0.18257623774E+02 -0.39758546646E+01  0.50487704733E+02  0.53834633271E+02  0.10566000000E+00 0.  1.
        994    1    1    2    0    0  0.15804150035E+02  0.19264873587E+01  0.41744383063E+01  0.17198938469E+03  0.17120000000E+03 0.  0.
        998    1    1    2    0    0  0.24534737393E+01  0.20493673059E+01  0.14453378532E+04  0.14453759820E+04  0.10000000000E+02 0.  1.
</event>
<event>
 5    1  0.9130022E-009  0.3821835E+03  0.7957747E-01  0.3441706E+00
         13   -1    0    0    0    0  0.00000000000E+00  0.00000000000E+00  0.14999999963E+04  0.15000000000E+04  0.10566000000E+00 0.  1.
        994   -1    0    0    0    0 -0.00000000000E+00 -0.00000000000E+00  0.11368683772E-12  0.17120000000E+03  0.17120000000E+03 0.  0.
         13    1    1    2    0    0  0.14090831573E+02 -0.33474514238E+02  0.19141334486E+03  0.19482857694E+03  0.10566000000E+00 0.  1.
        994    1    1    2    0    0 -0.20926793149E+02  0.30517398578E+02  0.75927840815E+01  0.17531780474E+03  0.17120000000E+03 0.  0.
        998    1    1    2    0    0  0.68359615757E+01  0.29571156601E+01  0.13009938673E+04  0.13010536183E+04  0.10000000000E+02 0.  1.
</event>
<event>
 5    1  0.9130022E-009  0.3811358E+03  0.7957747E-01  0.3446228E+00
         13   -1    0    0    0    0  0.00000000000E+00  0.00000000000E+00  0.14999999963E+04  0.15000000000E+04  0.10566000000E+00 0.  1.
        994   -1    0    0    0    0 -0.00000000000E+00 -0.00000000000E+00  0.11368683772E-12  0.17120000000E+03  0.17120000000E+03 0.  0.
         13    1    1    2    0    0 -0.38482507319E+01 -0.10430185468E+02  0.15750830793E+02  0.19279461541E+02  0.10566000000E+00 0.  1.
        994    1    1    2    0    0  0.48498028664E+01  0.95464372688E+01  0.39428448231E+01  0.17157983879E+03  0.17120000000E+03 0.  0.
        998    1    1    2    0    0 -0.10015521345E+01  0.88374819903E+00  0.14803063207E+04  0.14803406997E+04  0.10000000000E+02 0.  1.
</event>
<event>
 5    1  0.9130022E-009  0.3794741E+03  0.7957747E-01  0.3453451E+00
         13   -1    0    0    0    0  0.00000000000E+00  0.00000000000E+00  0.14999999963E+04  0.15000000000E+04  0.10566000000E+00 0. -1.
        994   -1    0    0    0    0 -0.00000000000E+00 -0.00000000000E+00  0.11368683772E-12  0.17120000000E+03  0.17120000000E+03 0.  0.
         13    1    1    2    0    0  0.17895096197E+02  0.89204984326E+00  0.35296469491E+02  0.39583862159E+02  0.10566000000E+00 0. -1.
        994    1    1    2    0    0 -0.72304455177E+01 -0.95688905017E+00  0.45769836253E+01  0.17141640458E+03  0.17120000000E+03 0.  0.
        998    1    1    2    0    0 -0.10664650679E+02  0.64839206909E-01  0.14601265432E+04  0.14601997333E+04  0.10000000000E+02 0. -1.
</event>
<event>
 5    1  0.9130022E-009  0.3853760E+03  0.7957747E-01  0.3428079E+00
         13   -1    0    0    0    0  0.00000000000E+00  0.00000000000E+00  0.14999999963E+04  0.15000000000E+04  0.10566000000E+00 0.  1.
        994   -1    0    0    0    0 -0.00000000000E+00 -0.00000000000E+00  0.11368683772E-12  0.17120000000E+03  0.17120000000E+03 0.  0.
         13    1    1    2    0    0  0.89175637724E+01 -0.11811219542E+02  0.79457103036E+02  0.80823698490E+02  0.10566000000E+00 0.  1.
        994    1    1    2    0    0  0.19205296672E+02  0.21051516270E+02  0.41152818916E+01  0.17360410509E+03  0.17120000000E+03 0.  0.
        998    1    1    2    0    0 -0.28122860445E+02 -0.92402967275E+01  0.14164276114E+04  0.14167721964E+04  0.10000000000E+02 0.  1.
</event>
<event>
 5    1  0.9130022E-009  0.3832238E+03  0.7957747E-01  0.3437240E+00
         13   -1    0    0    0    0  0.00000000000E+00  0.00000000000E+00  0.14999999963E+04  0.15000000000E+04  0.10566000000E+00 0. -1.
        994   -1    0    0    0    0 -0.00000000000E+00 -0.00000000000E+00  0.11368683772E-12  0.17120000000E+03  0.17120000000E+03 0.  0.
         13    1    1    2    0    0 -0.14863793787E+02 -0.30325346919E+01  0.44118424468E+02  0.46653779847E+02  0.10566000000E+00 0. -1.
        994    1    1    2    0    0  0.14616638737E+02  0.21389054680E+01  0.32366933911E+01  0.17186662628E+03  0.17120000000E+03 0.  0.
        998    1    1    2    0    0  0.24715504983E+00  0.89362922386E+00  0.14526448784E+04  0.14526795939E+04  0.10000000000E+02 0. -1.
</event>
<event>
 5    1  0.9130022E-009  0.3809730E+03  0.7957747E-01  0.3446933E+00
         13   -1    0    0    0    0  0.00000000000E+00  0.00000000000E+00  0.14999999963E+04  0.15000000000E+04  0.10566000000E+00 0.  1.
        994   -1    0    0    0    0 -0.00000000000E+00 -0.00000000000E+00  0.11368683772E-12  0.17120000000E+03  0.17120000000E+03 0.  0.
         13    1    1    2    0    0  0.31340952724E+02 -0.36519950246E+02  0.74703965612E+02  0.88863129169E+02  0.10566000000E+00 0.  1.
        994    1    1    2    0    0 -0.45463405905E+01 -0.44198026965E+02  0.24076269665E+02  0.17850277746E+03  0.17120000000E+03 0.  0.
        998    1    1    2    0    0 -0.26794612133E+02  0.80717977211E+02  0.14012197610E+04  0.14038340934E+04  0.10000000000E+02 0.  1.
</event>
<event>
 5    1  0.9130022E-009  0.3684872E+03  0.7957747E-01  0.3502872E+00
         13   -1    0    0    0    0  0.00000000000E+00  0.00000000000E+00  0.14999999963E+04  0.15000000000E+04  0.10566000000E+00 0. -1.
        994   -1    0    0    0    0 -0.00000000000E+00 -0.00000000000E+00  0.11368683772E-12  0.17120000000E+03  0.17120000000E+03 0.  0.
         13    1    1    2    0    0 -0.21348088378E+02  0.10050522633E+02  0.23166467520E+02  0.33067359496E+02  0.10566000000E+00 0. -1.
        994    1    1    2    0    0  0.16986300280E+02 -0.15036531092E+02  0.11852737028E+02  0.17310274128E+03  0.17120000000E+03 0.  0.
        998    1    1    2    0    0  0.43617880980E+01  0.49860084593E+01  0.14649807917E+04  0.14650298992E+04  0.10000000000E+02 0. -1.
</event>
<event>
 5    1  0.9130022E-009  0.3810837E+03  0.7957747E-01  0.3446453E+00
         13   -1    0    0    0    0  0.00000000000E+00  0.00000000000E+00  0.14999999963E+04  0.15000000000E+04  0.10566000000E+00 0. -1.
        994   -1    0    0    0    0 -0.00000000000E+00 -0.00000000000E+00  0.11368683772E-12  0.17120000000E+03  0.17120000000E+03 0.  0.
         13    1    1    2    0    0  0.20435141074E+01 -0.34412607628E+02  0.14831261885E+03  0.15226637051E+03  0.10566000000E+00 0. -1.
        994    1    1    2    0    0  0.21610105863E+01  0.36164945273E+02  0.79716211358E+01  0.17517294305E+03  0.17120000000E+03 0.  0.
        998    1    1    2    0    0 -0.42045246937E+01 -0.17523376450E+01  0.13437157563E+04  0.13437606864E+04  0.10000000000E+02 0. -1.
</event>
<event>
 5    1  0.9130022E-009  0.3779380E+03  0.7957747E-01  0.3460186E+00
         13   -1    0    0    0    0  0.00000000000E+00  0.00000000000E+00  0.14999999963E+04  0.15000000000E+04  0.10566000000E+00 0. -1.
        994   -1    0    0    0    0 -0.00000000000E+00 -0.00000000000E+00  0.11368683772E-12  0.17120000000E+03  0.17120000000E+03 0.  0.
         13    1    1    2    0    0  0.44098565383E+02  0.34032826550E+01  0.22608709134E+03  0.23037284961E+03  0.10566000000E+00 0. -1.
        994    1    1    2    0    0 -0.33619712191E+00  0.51632833879E+01  0.52677831130E+01  0.17135916101E+03  0.17120000000E+03 0.  0.
        998    1    1    2    0    0 -0.43762368261E+02 -0.85665660429E+01  0.12686451218E+04  0.12694679894E+04  0.10000000000E+02 0. -1.
</event>
<event>
 5    1  0.9130022E-009  0.3850132E+03  0.7957747E-01  0.3429616E+00
         13   -1    0    0    0    0  0.00000000000E+00  0.00000000000E+00  0.14999999963E+04  0.15000000000E+04  0.10566000000E+00 0. -1.
        994   -1    0    0    0    0 -0.00000000000E+00 -0.00000000000E+00  0.11368683772E-12  0.17120000000E+03  0.17120000000E+03 0.  0.
         13    1    1    2    0    0 -0.11253018945E+01 -0.23658689654E+02  0.13724313441E+03  0.13927199650E+03  0.10566000000E+00 0. -1.
        994    1    1    2    0    0 -0.15436528056E+02  0.41859334360E+02  0.81969215999E+01  0.17710765030E+03  0.17120000000E+03 0.  0.
        998    1    1    2    0    0  0.16561829950E+02 -0.18200644706E+02  0.13545599403E+04  0.13548203532E+04  0.10000000000E+02 0. -1.
</event>
<event>
 5    1  0.9130022E-009  0.3812852E+03  0.7957747E-01  0.3445581E+00
         13   -1    0    0    0    0  0.00000000000E+00  0.00000000000E+00  0.14999999963E+04  0.15000000000E+04  0.10566000000E+00 0. -1.
        994   -1    0    0    0    0 -0.00000000000E+00 -0.00000000000E+00  0.11368683772E-12  0.17120000000E+03  0.17120000000E+03 0.  0.
         13    1    1    2    0    0 -0.14451382894E+02 -0.11974655288E+02  0.49021168126E+02  0.52491150924E+02  0.10566000000E+00 0. -1.
        994    1    1    2    0    0  0.14162238842E+01  0.19760874650E+02  0.47934034673E+01  0.17240914875E+03  0.17120000000E+03 0.  0.
        998    1    1    2    0    0  0.13035159010E+02 -0.77862193617E+01  0.14461854247E+04  0.14462997003E+04  0.10000000000E+02 0. -1.
</event>
<event>
 5    1  0.9130022E-009  0.3761498E+03  0.7957747E-01  0.3468096E+00
         13   -1    0    0    0    0  0.00000000000E+00  0.00000000000E+00  0.14999999963E+04  0.15000000000E+04  0.10566000000E+00 0. -1.
        994   -1    0    0    0    0 -0.00000000000E+00 -0.00000000000E+00  0.11368683772E-12  0.17120000000E+03  0.17120000000E+03 0.  0.
         13    1    1    2    0    0  0.52215543256E+02  0.25265045004E+02  0.23423534137E+03  0.24131098559E+03  0.10566000000E+00 0. -1.
        994    1    1    2    0    0 -0.51178417422E+02 -0.25077143736E+02  0.17168101402E+02  0.18125197172E+03  0.17120000000E+03 0.  0.
        998    1    1    2    0    0 -0.10371258343E+01 -0.18790126799E+00  0.12485965535E+04  0.12486370427E+04  0.10000000000E+02 0.  0.
</event>
<event>
 5    1  0.9130022E-009  0.3749825E+03  0.7957747E-01  0.3473301E+00
         13   -1    0    0    0    0  0.00000000000E+00  0.00000000000E+00  0.14999999963E+04  0.15000000000E+04  0.10566000000E+00 0.  1.
        994   -1    0    0    0    0 -0.00000000000E+00 -0.00000000000E+00  0.11368683772E-12  0.17120000000E+03  0.17120000000E+03 0.  0.
         13    1    1    2    0    0  0.18917687215E+02  0.51621991784E+01  0.81483586115E+01  0.21235209017E+02  0.10566000000E+00 0.  1.
        994    1    1    2    0    0 -0.17049405166E+02  0.10588726746E+02  0.15032520923E+02  0.17302664545E+03  0.17120000000E+03 0.  0.
        998    1    1    2    0    0 -0.18682820489E+01 -0.15750925924E+02  0.14768191167E+04  0.14769381455E+04  0.10000000000E+02 0.  1.
</event>
<event>
 5    1  0.9130022E-009  0.3800535E+03  0.7957747E-01  0.3450925E+00
         13   -1    0    0    0    0  0.00000000000E+00  0.00000000000E+00  0.14999999963E+04  0.15000000000E+04  0.10566000000E+00 0. -1.
        994   -1    0    0    0    0 -0.00000000000E+00 -0.00000000000E+00  0.11368683772E-12  0.17120000000E+03  0.17120000000E+03 0.  0.
         13    1    1    2    0    0 -0.23122091188E+02 -0.17745490385E+02  0.11156423914E+03  0.11530882078E+03  0.10566000000E+00 0. -1.
        994    1    1    2    0    0 -0.59400176005E+01  0.10343699027E+02  0.45817953282E+01  0.17167617414E+03  0.17120000000E+03 0.  0.
        998    1    1    2    0    0  0.29062108788E+02  0.74017913580E+01  0.13838539618E+04  0.13842150051E+04  0.10000000000E+02 0. -1.
</event>
<event>
 5    1  0.9130022E-009  0.3822662E+03  0.7957747E-01  0.3441350E+00
         13   -1    0    0    0    0  0.00000000000E+00  0.00000000000E+00  0.14999999963E+04  0.15000000000E+04  0.10566000000E+00 0. -1.
        994   -1    0    0    0    0 -0.00000000000E+00 -0.00000000000E+00  0.11368683772E-12  0.17120000000E+03  0.17120000000E+03 0.  0.
         13    1    1    2    0    0  0.26127704844E+02 -0.23739536149E+02  0.18986702549E+03  0.19312100111E+03  0.10566000000E+00 0. -1.
        994    1    1    2    0    0 -0.24863659997E+02  0.19039749102E+02  0.62544121806E+01  0.17415301119E+03  0.17120000000E+03 0.  0.
        998    1    1    2    0    0 -0.12640448468E+01  0.46997870464E+01  0.13038785586E+04  0.13039259877E+04  0.10000000000E+02 0.  0.
</event>
<event>
 5    1  0.9130022E-009  0.3803708E+03  0.7957747E-01  0.3449545E+00
         13   -1    0    0    0    0  0.00000000000E+00  0.00000000000E+00  0.14999999963E+04  0.15000000000E+04  0.10566000000E+00 0.  1.
        994   -1    0    0    0    0 -0.00000000000E+00 -0.00000000000E+00  0.11368683772E-12  0.17120000000E+03  0.17120000000E+03 0.  0.
         13    1    1    2    0    0 -0.10342113460E+02  0.22960643677E+02  0.75972053956E+02  0.80036957809E+02  0.10566000000E+00 0.  1.
        994    1    1    2    0    0  0.13959951606E+02 -0.20223169715E+02  0.59648525629E+01  0.17305743644E+03  0.17120000000E+03 0.  0.
        998    1    1    2    0    0 -0.36178381465E+01 -0.27374739625E+01  0.14180630898E+04  0.14181056057E+04  0.10000000000E+02 0.  1.
</event>
<event>
 5    1  0.9130022E-009  0.3846446E+03  0.7957747E-01  0.3431181E+00
         13   -1    0    0    0    0  0.00000000000E+00  0.00000000000E+00  0.14999999963E+04  0.15000000000E+04  0.10566000000E+00 0.  1.
        994   -1    0    0    0    0 -0.00000000000E+00 -0.00000000000E+00  0.11368683772E-12  0.17120000000E+03  0.17120000000E+03 0.  0.
         13    1    1    2    0    0 -0.35210648758E+01  0.12707599695E+02  0.47311637599E+02  0.49114999788E+02  0.10566000000E+00 0.  1.
        994    1    1    2    0    0 -0.22581290164E+01 -0.12240842689E+02  0.23169648616E+01  0.17166754412E+03  0.17120000000E+03 0.  0.
        998    1    1    2    0    0  0.57791938922E+01 -0.46675700600E+00  0.14503713938E+04  0.14504174561E+04  0.10000000000E+02 0.  1.
</event>
<event>
 5    1  0.9130022E-009  0.3784404E+03  0.7957747E-01  0.3457977E+00
         13   -1    0    0    0    0  0.00000000000E+00  0.00000000000E+00  0.14999999963E+04  0.15000000000E+04  0.10566000000E+00 0.  1.
        994   -1    0    0    0    0 -0.00000000000E+00 -0.00000000000E+00  0.11368683772E-12  0.17120000000E+03  0.17120000000E+03 0.  0.
         13    1    1    2    0    0  0.11780195163E+02  0.14985136825E+02  0.34977295430E+02  0.39834026703E+02  0.10566000000E+00 0.  1.
        994    1    1    2    0    0 -0.17879081285E+01 -0.14502815337E+02  0.56403162827E+01  0.17191504133E+03  0.17120000000E+03 0.  0.
        998    1    1    2    0    0 -0.99922870344E+01 -0.48232148853E+00  0.14593823846E+04  0.14594509320E+04  0.10000000000E+02 0.  0.
</event>
<event>
 5    1  0.9130022E-009  0.4013548E+03  0.7957747E-01  0.3363139E+00
         13   -1    0    0    0    0  0.00000000000E+00  0.00000000000E+00  0.14999999963E+04  0.15000000000E+04  0.10566000000E+00 0.  1.
        994   -1    0    0    0    0 -0.00000000000E+00 -0.00000000000E+00  0.11368683772E-12  0.17120000000E+03  0.17120000000E+03 0.  0.
         13    1    1    2    0    0 -0.11566224834E+03  0.36302729719E+02  0.30248469530E+03  0.32587213125E+03  0.10566000000E+00 0.  1.
        994    1    1    2    0    0  0.29093440972E+02 -0.21092792177E+02  0.33689979156E+02  0.17814541500E+03  0.17120000000E+03 0.  0.
        998    1    1    2    0    0  0.86568807368E+02 -0.15209937542E+02  0.11638253218E+04  0.11671824537E+04  0.10000000000E+02 0.  1.
</event>
<event>
 5    1  0.9130022E-009  0.3824858E+03  0.7957747E-01  0.3440406E+00
         13   -1    0    0    0    0  0.00000000000E+00  0.00000000000E+00  0.14999999963E+04  0.15000000000E+04  0.10566000000E+00 0. -1.
        994   -1    0    0    0    0 -0.00000000000E+00 -0.00000000000E+00  0.11368683772E-12  0.17120000000E+03  0.17120000000E+03 0.  0.
         13    1    1    2    0    0 -0.15372999089E+02  0.23362917230E+02  0.13566435105E+03  0.13851708311E+03  0.10566000000E+00 0. -1.
        994    1    1    2    0    0  0.10891860091E+02 -0.11744624206E+02  0.37347039002E+01  0.17198824619E+03  0.17120000000E+03 0.  0.
        998    1    1    2    0    0  0.44811389980E+01 -0.11618293024E+02  0.13606009413E+04  0.13606946707E+04  0.10000000000E+02 0. -1.
</event>
<event>
 5    1  0.9130022E-009  0.3759047E+03  0.7957747E-01  0.3469187E+00
         13   -1    0    0    0    0  0.00000000000E+00  0.00000000000E+00  0.14999999963E+04  0.15000000000E+04  0.10566000000E+00 0.  1.
        994   -1    0    0    0    0 -0.00000000000E+00 -0.00000000000E+00  0.11368683772E-12  0.17120000000E+03  0.17120000000E+03 0.  0.
         13    1    1    2    0    0  0.17377145289E+02 -0.46446598180E+02  0.20051783199E+03  0.20655910479E+03  0.10566000000E+00 0.  1.
        994    1    1    2    0    0 -0.41520346229E+01  0.25012195567E+02  0.83964832793E+01  0.17327085805E+03  0.17120000000E+03 0.  0.
        998    1    1    2    0    0 -0.13225110666E+02  0.21434402613E+02  0.12910856810E+04  0.12913700372E+04  0.10000000000E+02 0. -1.
</event>
<event>
 5    1  0.9130022E-009  0.3831576E+03  0.7957747E-01  0.3437524E+00
         13   -1    0    0    0    0  0.00000000000E+00  0.00000000000E+00  0.14999999963E+04  0.15000000000E+04  0.10566000000E+00 0.  1.
        994   -1    0    0    0    0 -0.00000000000E+00 -0.00000000000E+00  0.11368683772E-12  0.17120000000E+03  0.17120000000E+03 0.  0.
         13    1    1    2    0    0  0.28994126584E+02  0.15453357177E+02  0.18981578663E+03  0.19263828706E+03  0.10566000000E+00 0.  1.
        994    1    1    2    0    0 -0.44405225543E+02  0.12549257641E+02  0.96244094755E+01  0.17757076668E+03  0.17120000000E+03 0.  0.
        998    1    1    2    0    0  0.15411098959E+02 -0.28002614818E+02  0.13005598002E+04  0.13009909463E+04  0.10000000000E+02 0.  1.
</event>
<event>
 5    1  0.9130022E-009  0.3825483E+03  0.7957747E-01  0.3440137E+00
         13   -1    0    0    0    0  0.00000000000E+00  0.00000000000E+00  0.14999999963E+04  0.15000000000E+04  0.10566000000E+00 0. -1.
        994   -1    0    0    0    0 -0.00000000000E+00 -0.00000000000E+00  0.11368683772E-12  0.17120000000E+03  0.17120000000E+03 0.  0.
         13    1    1    2    0    0 -0.30574091788E+01 -0.33761495799E+02  0.17641158123E+03  0.17963920370E+03  0.10566000000E+00 0. -1.
        994    1    1    2    0    0  0.11541211678E+01  0.35936579510E+02  0.71496900175E+01  0.17508091789E+03  0.17120000000E+03 0.  0.
        998    1    1    2    0    0  0.19032880110E+01 -0.21750837112E+01  0.13164387250E+04  0.13164798784E+04  0.10000000000E+02 0.  0.
</event>
<event>
 5    1  0.9130022E-009  0.3792833E+03  0.7957747E-01  0.3454285E+00
         13   -1    0    0    0    0  0.00000000000E+00  0.00000000000E+00  0.14999999963E+04  0.15000000000E+04  0.10566000000E+00 0.  1.
        994   -1    0    0    0    0 -0.00000000000E+00 -0.00000000000E+00  0.11368683772E-12  0.17120000000E+03  0.17120000000E+03 0.  0.
         13    1    1    2    0    0 -0.18184992412E+02 -0.25818536769E+02  0.12271919884E+03  0.12671741679E+03  0.10566000000E+00 0.  1.
        994    1    1    2    0    0  0.40763161897E+01 -0.48738336149E+01  0.46306479035E+01  0.17138043502E+03  0.17120000000E+03 0.  0.
        998    1    1    2    0    0  0.14108676223E+02  0.30692370384E+02  0.13726501495E+04  0.13731021482E+04  0.10000000000E+02 0.  1.
</event>
<event>
 5    1  0.9130022E-009  0.3778151E+03  0.7957747E-01  0.3460727E+00
         13   -1    0    0    0    0  0.00000000000E+00  0.00000000000E+00  0.14999999963E+04  0.15000000000E+04  0.10566000000E+00 0. -1.
        994   -1    0    0    0    0 -0.00000000000E+00 -0.00000000000E+00  0.11368683772E-12  0.17120000000E+03  0.17120000000E+03 0.  0.
         13    1    1    2    0    0  0.47045202392E+02  0.76358045492E+02  0.21623829138E+03  0.23410000427E+03  0.10566000000E+00 0. -1.
        994    1    1    2    0    0 -0.54721269427E+02 -0.78679945764E+02  0.48939736196E+02  0.20221149565E+03  0.17120000000E+03 0.  0.
        998    1    1    2    0    0  0.76760670356E+01  0.23219002725E+01  0.12348219687E+04  0.12348885001E+04  0.10000000000E+02 0. -1.
</event>
<event>
 5    1  0.9130022E-009  0.3851966E+03  0.7957747E-01  0.3428839E+00
         13   -1    0    0    0    0  0.00000000000E+00  0.00000000000E+00  0.14999999963E+04  0.15000000000E+04  0.10566000000E+00 0.  1.
        994   -1    0    0    0    0 -0.00000000000E+00 -0.00000000000E+00  0.11368683772E-12  0.17120000000E+03  0.17120000000E+03 0.  0.
         13    1    1    2    0    0 -0.98200600285E+01  0.11985486671E+02  0.76619595832E+02  0.78170704866E+02  0.10566000000E+00 0.  1.
        994    1    1    2    0    0  0.10710064948E+02 -0.87662095581E+01  0.21623494396E+01  0.17177213882E+03  0.17120000000E+03 0.  0.
        998    1    1    2    0    0 -0.89000491924E+00 -0.32192771131E+01  0.14212180510E+04  0.14212571563E+04  0.10000000000E+02 0.  1.
</event>
<event>
 5    1  0.9130022E-009  0.3687425E+03  0.7957747E-01  0.3501690E+00
         13   -1    0    0    0    0  0.00000000000E+00  0.00000000000E+00  0.14999999963E+04  0.15000000000E+04  0.10566000000E+00 0.  1.
        994   -1    0    0    0    0 -0.00000000000E+00 -0.00000000000E+00  0.11368683772E-12  0.17120000000E+03  0.17120000000E+03 0.  0.
         13    1    1    2    0    0  0.38587513157E+02 -0.76887611214E+01  0.68371599259E+02  0.78884725825E+02  0.10566000000E+00 0.  1.
        994    1    1    2    0    0 -0.36902427488E+02  0.20859105338E+02  0.16555973804E+02  0.17714522770E+03  0.17120000000E+03 0.  0.
        998    1    1    2    0    0 -0.16850856689E+01 -0.13170344217E+02  0.14150724232E+04  0.14151700465E+04  0.10000000000E+02 0.  1.
</event>
<event>
 5    1  0.9130022E-009  0.3826485E+03  0.7957747E-01  0.3439707E+00
         13   -1    0    0    0    0  0.00000000000E+00  0.00000000000E+00  0.14999999963E+04  0.15000000000E+04  0.10566000000E+00 0. -1.
        994   -1    0    0    0    0 -0.00000000000E+00 -0.00000000000E+00  0.11368683772E-12  0.17120000000E+03  0.17120000000E+03 0.  0.
         13    1    1    2    0    0  0.16421024024E+02 -0.19088418670E+02  0.12947514096E+03  0.13190087584E+03  0.10566000000E+00 0. -1.
        994    1    1    2    0    0 -0.29085323163E+01 -0.84529241111E+01  0.30670131862E+01  0.17146066037E+03  0.17120000000E+03 0.  0.
        998    1    1    2    0    0 -0.13512491708E+02  0.27541342782E+02  0.13674578421E+04  0.13678384638E+04  0.10000000000E+02 0. -1.
</event>
<event>
 5    1  0.9130022E-009  0.3846765E+03  0.7957747E-01  0.3431046E+00
         13   -1    0    0    0    0  0.00000000000E+00  0.00000000000E+00  0.14999999963E+04  0.15000000000E+04  0.10566000000E+00 0.  1.
        994   -1    0    0    0    0 -0.00000000000E+00 -0.00000000000E+00  0.11368683772E-12  0.17120000000E+03  0.17120000000E+03 0.  0.
         13    1    1    2    0    0 -0.14583267242E+03 -0.15843920769E+03  0.11996935492E+04  0.12188661838E+04  0.10566000000E+00 0.  1.
        994    1    1    2    0    0  0.14935186869E+03  0.15721724119E+03  0.17602152714E+03  0.32759160494E+03  0.17120000000E+03 0.  0.
        998    1    1    2    0    0 -0.35191962758E+01  0.12219665063E+01  0.12428491991E+03  0.12474221122E+03  0.10000000000E+02 0. -1.
</event>
<event>
 5    1  0.9130022E-009  0.3763376E+03  0.7957747E-01  0.3467262E+00
         13   -1    0    0    0    0  0.00000000000E+00  0.00000000000E+00  0.14999999963E+04  0.15000000000E+04  0.10566000000E+00 0.  1.
        994   -1    0    0    0    0 -0.00000000000E+00 -0.00000000000E+00  0.11368683772E-12  0.17120000000E+03  0.17120000000E+03 0.  0.
         13    1    1    2    0    0  0.43342576201E+02  0.33975902190E+02  0.22339433909E+03  0.23008255636E+03  0.10566000000E+00 0.  1.
        994    1    1    2    0    0 -0.32152702569E+02 -0.39351293783E+02  0.14782307692E+02  0.17919340732E+03  0.17120000000E+03 0.  0.
        998    1    1    2    0    0 -0.11189873632E+02  0.53753915924E+01  0.12618233495E+04  0.12619240363E+04  0.10000000000E+02 0.  1.
</event>
<event>
 5    1  0.9130022E-009  0.3718866E+03  0.7957747E-01  0.3487265E+00
         13   -1    0    0    0    0  0.00000000000E+00  0.00000000000E+00  0.14999999963E+04  0.15000000000E+04  0.10566000000E+00 0.  1.
        994   -1    0    0    0    0 -0.00000000000E+00 -0.00000000000E+00  0.11368683772E-12  0.17120000000E+03  0.17120000000E+03 0.  0.
         13    1    1    2    0    0 -0.48597695354E+02  0.80268536634E+02  0.39053042031E+03  0.40164510992E+03  0.10566000000E+00 0.  1.
        994    1    1    2    0    0 -0.10819572067E+02 -0.61623016991E+02  0.25846282719E+02  0.18409760915E+03  0.17120000000E+03 0.  0.
        998    1    1    2    0    0  0.59417267421E+02 -0.18645519643E+02  0.10836232932E+04  0.10854572809E+04  0.10000000000E+02 0.  1.
</event>
<event>
 5    1  0.9130022E-009  0.3815752E+03  0.7957747E-01  0.3444328E+00
         13   -1    0    0    0    0  0.00000000000E+00  0.00000000000E+00  0.14999999963E+04  0.15000000000E+04  0.10566000000E+00 0.  1.
        994   -1    0    0    0    0 -0.00000000000E+00 -0.00000000000E+00  0.11368683772E-12  0.17120000000E+03  0.17120000000E+03 0.  0.
         13    1    1    2    0    0  0.24131741478E+02  0.24229713302E+02  0.17474876787E+03  0.17806336790E+03  0.10566000000E+00 0.  1.
        994    1    1    2    0    0 -0.26124512176E+01 -0.25306126241E+02  0.54955058783E+01  0.17316716060E+03  0.17120000000E+03 0.  0.
        998    1    1    2    0    0 -0.21519290260E+02  0.10764129398E+01  0.13197557225E+04  0.13199694715E+04  0.10000000000E+02 0.  1.
</event>
<event>
 5    1  0.9130022E-009  0.3830683E+03  0.7957747E-01  0.3437906E+00
         13   -1    0    0    0    0  0.00000000000E+00  0.00000000000E+00  0.14999999963E+04  0.15000000000E+04  0.10566000000E+00 0. -1.
        994   -1    0    0    0    0 -0.00000000000E+00 -0.00000000000E+00  0.11368683772E-12  0.17120000000E+03  0.17120000000E+03 0.  0.
         13    1    1    2    0    0  0.21238856968E+01 -0.11836665262E+02  0.27969200748E+02  0.30445112736E+02  0.10566000000E+00 0. -1.
        994    1    1    2    0    0 -0.87892985185E+01 -0.32334153444E+01  0.28825391797E+01  0.17148019062E+03  0.17120000000E+03 0.  0.
        998    1    1    2    0    0  0.66654128217E+01  0.15070080606E+02  0.14691482564E+04  0.14692746966E+04  0.10000000000E+02 0. -1.
</event>
<event>
 5    1  0.9130022E-009  0.3704253E+03  0.7957747E-01  0.3493939E+00
         13   -1    0    0    0    0  0.00000000000E+00  0.00000000000E+00  0.14999999963E+04  0.15000000000E+04  0.10566000000E+00 0. -1.
        994   -1    0    0    0    0 -0.00000000000E+00 -0.00000000000E+00  0.11368683772E-12  0.17120000000E+03  0.17120000000E+03 0.  0.
         13    1    1    2    0    0 -0.33196530946E+02  0.31400081948E+02  0.84931647760E+02  0.96443614452E+02  0.10566000000E+00 0. -1.
        994    1    1    2    0    0  0.43542619194E+02 -0.20195775714E+02  0.19273909006E+02  0.17884281538E+03  0.17120000000E+03 0.  0.
        998    1    1    2    0    0 -0.10346088248E+02 -0.11204306234E+02  0.13957944395E+04  0.13959135702E+04  0.10000000000E+02 0. -1.
</event>
<event>
 5    1  0.9130022E-009  0.3815436E+03  0.7957747E-01  0.3444465E+00
         13   -1    0    0    0    0  0.00000000000E+00  0.00000000000E+00  0.14999999963E+04  0.15000000000E+04  0.10566000000E+00 0. -1.
        994   -1    0    0    0    0 -0.00000000000E+00 -0.00000000000E+00  0.11368683772E-12  0.17120000000E+03  0.17120000000E+03 0.  0.
         13    1    1    2    0    0 -0.88083023991E+01 -0.20907917021E+02  0.74039178969E+02  0.77437318986E+02  0.10566000000E+00 0. -1.
        994    1    1    2    0    0  0.43511391483E+01  0.18226600640E+02  0.45247327547E+01  0.17228190442E+03  0.17120000000E+03 0.  0.
        998    1    1    2    0    0  0.44571632508E+01  0.26813163805E+01  0.14214360846E+04  0.14214807766E+04  0.10000000000E+02 0. -1.
</event>
<event>
 5    1  0.9130022E-009  0.3851286E+03  0.7957747E-01  0.3429127E+00
         13   -1    0    0    0    0  0.00000000000E+00  0.00000000000E+00  0.14999999963E+04  0.15000000000E+04  0.10566000000E+00 0.  1.
        994   -1    0    0    0    0 -0.00000000000E+00 -0.00000000000E+00  0.11368683772E-12  0.17120000000E+03  0.17120000000E+03 0.  0.
         13    1    1    2    0    0  0.12956659532E+02 -0.92124227472E+01  0.82953567312E+02  0.84463301220E+02  0.10566000000E+00 0.  1.
        994    1    1    2    0    0 -0.13811832838E+02 -0.72550931541E+01  0.23668675904E+01  0.17192569664E+03  0.17120000000E+03 0.  0.
        998    1    1    2    0    0  0.85517330634E+00  0.16467515901E+02  0.14146795614E+04  0.14148110021E+04  0.10000000000E+02 0.  1.
</event>
<event>
 5    1  0.9130022E-009  0.3714973E+03  0.7957747E-01  0.3489038E+00
         13   -1    0    0    0    0  0.00000000000E+00  0.00000000000E+00  0.14999999963E+04  0.15000000000E+04  0.10566000000E+00 0.  1.
        994   -1    0    0    0    0 -0.00000000000E+00 -0.00000000000E+00  0.11368683772E-12  0.17120000000E+03  0.17120000000E+03 0.  0.
         13    1    1    2    0    0 -0.42020297434E+02 -0.11259572365E+03  0.53154713327E+03  0.54496409830E+03  0.10566000000E+00 0.  1.
        994    1    1    2    0    0  0.31547538858E+02  0.11584348981E+03  0.59834190733E+02  0.21749604989E+03  0.17120000000E+03 0.  0.
        998    1    1    2    0    0  0.10472758576E+02 -0.32477661584E+01  0.90861867227E+03  0.90873985181E+03  0.10000000000E+02 0.  0.
</event>
<event>
 5    1  0.9130022E-009  0.3782831E+03  0.7957747E-01  0.3458668E+00
         13   -1    0    0    0    0  0.00000000000E+00  0.00000000000E+00  0.14999999963E+04  0.15000000000E+04  0.10566000000E+00 0.  1.
        994   -1    0    0    0    0 -0.00000000000E+00 -0.00000000000E+00  0.11368683772E-12  0.17120000000E+03  0.17120000000E+03 0.  0.
         13    1    1    2    0    0  0.10702348326E+02  0.42480892519E+02  0.12081827141E+03  0.12851549463E+03  0.10566000000E+00 0.  1.
        994    1    1    2    0    0 -0.17453426361E+02 -0.11483900956E+03  0.51794084816E+02  0.21327139384E+03  0.17120000000E+03 0.  0.
        998    1    1    2    0    0  0.67510780343E+01  0.72358117036E+02  0.13273876401E+04  0.13294131115E+04  0.10000000000E+02 0.  1.
</event>
<event>
 5    1  0.9130022E-009  0.4443162E+03  0.7957747E-01  0.3211449E+00
         13   -1    0    0    0    0  0.00000000000E+00  0.00000000000E+00  0.14999999963E+04  0.15000000000E+04  0.10566000000E+00 0. -1.
        994   -1    0    0    0    0 -0.00000000000E+00 -0.00000000000E+00  0.11368683772E-12  0.17120000000E+03  0.17120000000E+03 0.  0.
         13    1    1    2    0    0  0.89696299617E+02  0.13142205086E+02  0.55273873183E+02  0.10617606105E+03  0.10566000000E+00 0. -1.
        994    1    1    2    0    0 -0.70434130957E+02 -0.35208963381E+02  0.88054347086E+02  0.20799914891E+03  0.17120000000E+03 0.  0.
        998    1    1    2    0    0 -0.19262168660E+02  0.22066758295E+02  0.13566717760E+04  0.13570247900E+04  0.10000000000E+02 0. -1.
</event>
<event>
 5    1  0.9130022E-009  0.3827456E+03  0.7957747E-01  0.3439290E+00
         13   -1    0    0    0    0  0.00000000000E+00  0.00000000000E+00  0.14999999963E+04  0.15000000000E+04  0.10566000000E+00 0.  1.
        994   -1    0    0    0    0 -0.00000000000E+00 -0.00000000000E+00  0.11368683772E-12  0.17120000000E+03  0.17120000000E+03 0.  0.
         13    1    1    2    0    0 -0.39885407728E+01 -0.10231898453E+02  0.20758736866E+02  0.23484814748E+02  0.10566000000E+00 0.  1.
        994    1    1    2    0    0  0.24721184673E+01  0.90327227246E+01  0.30441789705E+01  0.17148296847E+03  0.17120000000E+03 0.  0.
        998    1    1    2    0    0  0.15164223055E+01  0.11991757289E+01  0.14761970804E+04  0.14762322168E+04  0.10000000000E+02 0.  1.
</event>
<event>
 5    1  0.9130022E-009  0.3760536E+03  0.7957747E-01  0.3468524E+00
         13   -1    0    0    0    0  0.00000000000E+00  0.00000000000E+00  0.14999999963E+04  0.15000000000E+04  0.10566000000E+00 0.  1.
        994   -1    0    0    0    0 -0.00000000000E+00 -0.00000000000E+00  0.11368683772E-12  0.17120000000E+03  0.17120000000E+03 0.  0.
         13    1    1    2    0    0  0.16197368483E+02 -0.43318237324E+01  0.20732481305E+02  0.26663952965E+02  0.10566000000E+00 0.  1.
        994    1    1    2    0    0 -0.53375787043E+01 -0.93111539776E+01  0.65289307595E+01  0.17166028740E+03  0.17120000000E+03 0.  0.
        998    1    1    2    0    0 -0.10859789779E+02  0.13642977710E+02  0.14727385842E+04  0.14728757596E+04  0.10000000000E+02 0.  1.
</event>
<event>
 5    1  0.9130022E-009  0.3815408E+03  0.7957747E-01  0.3444477E+00
         13   -1    0    0    0    0  0.00000000000E+00  0.00000000000E+00  0.14999999963E+04  0.15000000000E+04  0.10566000000E+00 0. -1.
        994   -1    0    0    0    0 -0.00000000000E+00 -0.00000000000E+00  0.11368683772E-12  0.17120000000E+03  0.17120000000E+03 0.  0.
         13    1    1    2    0    0  0.17408714026E+03  0.57365295258E+02  0.92148004893E+03  0.93953318262E+03  0.10566000000E+00 0. -1.
        994    1    1    2    0    0 -0.19634502873E+03 -0.49843616778E+02  0.15463463426E+03  0.30701313743E+03  0.17120000000E+03 0.  0.
        998    1    1    2    0    0  0.22257888468E+02 -0.75216784800E+01  0.42388531308E+03  0.42465367995E+03  0.10000000000E+02 0.  1.
</event>
<event>
 5    1  0.9130022E-009  0.3695135E+03  0.7957747E-01  0.3498130E+00
         13   -1    0    0    0    0  0.00000000000E+00  0.00000000000E+00  0.14999999963E+04  0.15000000000E+04  0.10566000000E+00 0.  1.
        994   -1    0    0    0    0 -0.00000000000E+00 -0.00000000000E+00  0.11368683772E-12  0.17120000000E+03  0.17120000000E+03 0.  0.
         13    1    1    2    0    0 -0.56238930653E+02 -0.24020546309E+03  0.72249062516E+03  0.76344888266E+03  0.10566000000E+00 0.  1.
        994    1    1    2    0    0  0.62443921245E+02  0.26043442992E+03  0.32486442963E+03  0.45450156570E+03  0.17120000000E+03 0.  0.
        998    1    1    2    0    0 -0.62049905912E+01 -0.20228966825E+02  0.45264494149E+03  0.45324955164E+03  0.10000000000E+02 0. -1.
</event>
<event>
 5    1  0.9130022E-009  0.3820797E+03  0.7957747E-01  0.3442153E+00
         13   -1    0    0    0    0  0.00000000000E+00  0.00000000000E+00  0.14999999963E+04  0.15000000000E+04  0.10566000000E+00 0. -1.
        994   -1    0    0    0    0 -0.00000000000E+00 -0.00000000000E+00  0.11368683772E-12  0.17120000000E+03  0.17120000000E+03 0.  0.
         13    1    1    2    0    0  0.11027616574E+02 -0.42997471717E+02  0.25748639221E+03  0.26128460391E+03  0.10566000000E+00 0. -1.
        994    1    1    2    0    0 -0.43590458611E+01  0.48478273948E+02  0.10993005138E+02  0.17832394816E+03  0.17120000000E+03 0.  0.
        998    1    1    2    0    0 -0.66685707128E+01 -0.54808022308E+01  0.12315205989E+04  0.12315914479E+04  0.10000000000E+02 0. -1.
</event>
<event>
 5    1  0.9130022E-009  0.3741840E+03  0.7957747E-01  0.3476880E+00
         13   -1    0    0    0    0  0.00000000000E+00  0.00000000000E+00  0.14999999963E+04  0.15000000000E+04  0.10566000000E+00 0. -1.
        994   -1    0    0    0    0 -0.00000000000E+00 -0.00000000000E+00  0.11368683772E-12  0.17120000000E+03  0.17120000000E+03 0.  0.
         13    1    1    2    0    0  0.33419146432E+02 -0.96568797284E+01  0.78381105303E+02  0.85753737568E+02  0.10566000000E+00 0. -1.
        994    1    1    2    0    0 -0.34890270711E+02  0.94529958337E+01  0.11565326563E+02  0.17535645668E+03  0.17120000000E+03 0.  0.
        998    1    1    2    0    0  0.14711242793E+01  0.20388389468E+00  0.14100535644E+04  0.14100898058E+04  0.10000000000E+02 0. -1.
</event>
<event>
 5    1  0.9130022E-009  0.3801679E+03  0.7957747E-01  0.3450428E+00
         13   -1    0    0    0    0  0.00000000000E+00  0.00000000000E+00  0.14999999963E+04  0.15000000000E+04  0.10566000000E+00 0. -1.
        994   -1    0    0    0    0 -0.00000000000E+00 -0.00000000000E+00  0.11368683772E-12  0.17120000000E+03  0.17120000000E+03 0.  0.
         13    1    1    2    0    0 -0.22119678266E+02 -0.32798466268E+01  0.65946395612E+02  0.69634587805E+02  0.10566000000E+00 0. -1.
        994    1    1    2    0    0 -0.72268960035E+01  0.42434358825E+01  0.42831269085E+01  0.17145850795E+03  0.17120000000E+03 0.  0.
        998    1    1    2    0    0  0.29346574270E+02 -0.96358925574E+00  0.14297704738E+04  0.14301069042E+04  0.10000000000E+02 0. -1.
</event>
<event>
 5    1  0.9130022E-009  0.3707623E+03  0.7957747E-01  0.3492395E+00
         13   -1    0    0    0    0  0.00000000000E+00  0.00000000000E+00  0.14999999963E+04  0.15000000000E+04  0.10566000000E+00 0.  1.
        994   -1    0    0    0    0 -0.00000000000E+00 -0.00000000000E+00  0.11368683772E-12  0.17120000000E+03  0.17120000000E+03 0.  0.
         13    1    1    2    0    0  0.26693902478E+02 -0.16218922859E+02  0.55368421930E+02  0.63571150684E+02  0.10566000000E+00 0.  1.
        994    1    1    2    0    0  0.41498790888E+01  0.11366169891E+01  0.89350100401E+01  0.17148699017E+03  0.17120000000E+03 0.  0.
        998    1    1    2    0    0 -0.30843781567E+02  0.15082305870E+02  0.14356965643E+04  0.14361418591E+04  0.10000000000E+02 0.  1.
</event>
<event>
 5    1  0.9130022E-009  0.3721988E+03  0.7957747E-01  0.3485846E+00
         13   -1    0    0    0    0  0.00000000000E+00  0.00000000000E+00  0.14999999963E+04  0.15000000000E+04  0.10566000000E+00 0. -1.
        994   -1    0    0    0    0 -0.00000000000E+00 -0.00000000000E+00  0.11368683772E-12  0.17120000000E+03  0.17120000000E+03 0.  0.
         13    1    1    2    0    0  0.73263826543E+00 -0.17559420680E+02  0.17947572979E+02  0.25119644768E+02  0.10566000000E+00 0. -1.
        994    1    1    2    0    0  0.63656036037E+01 -0.54603015272E+02  0.18566963749E+02  0.18076554519E+03  0.17120000000E+03 0.  0.
        998    1    1    2    0    0 -0.70982418692E+01  0.72162435952E+02  0.14634854596E+04  0.14653148100E+04  0.10000000000E+02 0. -1.
</event>
<event>
 5    1  0.9508681E-009  0.3857193E+03  0.7957747E-01  0.3426627E+00
         13   -1    0    0    0    0  0.00000000000E+00  0.00000000000E+00  0.14999999963E+04  0.15000000000E+04  0.10566000000E+00 0. -1.
        994   -1    0    0    0    0 -0.00000000000E+00 -0.00000000000E+00  0.11368683772E-12  0.17120000000E+03  0.17120000000E+03 0.  0.
         13    1    1    2    0    0 -0.48404081394E+01  0.99136420319E+01  0.39696954878E+02  0.41201568416E+02  0.10566000000E+00 0. -1.
        994    1    1    2    0    0 -0.50876454632E+01 -0.50731480174E+02  0.98495177826E+01  0.17890226443E+03  0.17120000000E+03 0.  0.
        998    1    1    2    0    0  0.99280536026E+01  0.40817838142E+02  0.14504535236E+04  0.14510961672E+04  0.10000000000E+02 0. -1.
</event>
<event>
 5    1  0.9130022E-009  0.3827564E+03  0.7957747E-01  0.3439244E+00
         13   -1    0    0    0    0  0.00000000000E+00  0.00000000000E+00  0.14999999963E+04  0.15000000000E+04  0.10566000000E+00 0. -1.
        994   -1    0    0    0    0 -0.00000000000E+00 -0.00000000000E+00  0.11368683772E-12  0.17120000000E+03  0.17120000000E+03 0.  0.
         13    1    1    2    0    0 -0.19033439872E+02 -0.24748360780E+02  0.15379769364E+03  0.15693468364E+03  0.10566000000E+00 0. -1.
        994    1    1    2    0    0  0.21080179444E+02  0.30154317348E+02  0.72454524414E+01  0.17525864715E+03  0.17120000000E+03 0.  0.
        998    1    1    2    0    0 -0.20467395727E+01 -0.54059565682E+01  0.13389568502E+04  0.13390066692E+04  0.10000000000E+02 0. -1.
</event>
<event>
 5    1  0.9130022E-009  0.3823429E+03  0.7957747E-01  0.3441020E+00
         13   -1    0    0    0    0  0.00000000000E+00  0.00000000000E+00  0.14999999963E+04  0.15000000000E+04  0.10566000000E+00 0. -1.
        994   -1    0    0    0    0 -0.00000000000E+00 -0.00000000000E+00  0.11368683772E-12  0.17120000000E+03  0.17120000000E+03 0.  0.
         13    1    1    2    0    0  0.21969007287E+02 -0.63806852515E+01  0.84412600798E+02  0.87457696991E+02  0.10566000000E+00 0. -1.
        994    1    1    2    0    0 -0.18925427479E+02  0.10704092321E+02  0.45249133762E+01  0.17263448160E+03  0.17120000000E+03 0.  0.
        998    1    1    2    0    0 -0.30435798086E+01 -0.43234070699E+01  0.14110624821E+04  0.14111078214E+04  0.10000000000E+02 0. -1.
</event>
<event>
 5    1  0.9130022E-009  0.3763849E+03  0.7957747E-01  0.3467052E+00
         13   -1    0    0    0    0  0.00000000000E+00  0.00000000000E+00  0.14999999963E+04  0.15000000000E+04  0.10566000000E+00 0.  1.
        994   -1    0    0    0    0 -0.00000000000E+00 -0.00000000000E+00  0.11368683772E-12  0.17120000000E+03  0.17120000000E+03 0.  0.
         13    1    1    2    0    0  0.45562877765E+02 -0.61298999917E+00  0.19659366960E+03  0.20180543521E+03  0.10566000000E+00 0.  1.
        994    1    1    2    0    0 -0.52704601909E+01  0.32696634240E+01  0.60994238330E+01  0.17142086052E+03  0.17120000000E+03 0.  0.
        998    1    1    2    0    0 -0.40292417574E+02 -0.26566734249E+01  0.12973069028E+04  0.12979737043E+04  0.10000000000E+02 0.  1.
</event>
<event>
 5    1  0.9130022E-009  0.3857232E+03  0.7957747E-01  0.3426611E+00
         13   -1    0    0    0    0  0.00000000000E+00  0.00000000000E+00  0.14999999963E+04  0.15000000000E+04  0.10566000000E+00 0. -1.
        994   -1    0    0    0    0 -0.00000000000E+00 -0.00000000000E+00  0.11368683772E-12  0.17120000000E+03  0.17120000000E+03 0.  0.
         13    1    1    2    0    0  0.46023520373E+01  0.99143998971E+01  0.45896651943E+02  0.47180406878E+02  0.10566000000E+00 0. -1.
        994    1    1    2    0    0 -0.96207611492E+01 -0.92991163300E+01  0.18591242872E+01  0.17173214304E+03  0.17120000000E+03 0.  0.
        998    1    1    2    0    0  0.50184091118E+01 -0.61528356706E+00  0.14522442200E+04  0.14522874501E+04  0.10000000000E+02 0. -1.
</event>
<event>
 5    1  0.9130022E-009  0.3771189E+03  0.7957747E-01  0.3463800E+00
         13   -1    0    0    0    0  0.00000000000E+00  0.00000000000E+00  0.14999999963E+04  0.15000000000E+04  0.10566000000E+00 0. -1.
        994   -1    0    0    0    0 -0.00000000000E+00 -0.00000000000E+00  0.11368683772E-12  0.17120000000E+03  0.17120000000E+03 0.  0.
         13    1    1    2    0    0  0.66831841208E+02  0.84003551963E+02  0.56299029027E+03  0.57313276807E+03  0.10566000000E+00 0. -1.
        994    1    1    2    0    0 -0.73535905078E+02 -0.88705908401E+02  0.51802425045E+02  0.21276559581E+03  0.17120000000E+03 0.  0.
        998    1    1    2    0    0  0.67040638698E+01  0.47023564374E+01  0.88520728097E+03  0.88530163611E+03  0.10000000000E+02 0. -1.
</event>
<event>
 5    1  0.9130022E-009  0.3852183E+03  0.7957747E-01  0.3428747E+00
         13   -1    0    0    0    0  0.00000000000E+00  0.00000000000E+00  0.14999999963E+04  0.15000000000E+04  0.10566000000E+00 0. -1.
        994   -1    0    0    0    0 -0.00000000000E+00 -0.00000000000E+00  0.11368683772E-12  0.17120000000E+03  0.17120000000E+03 0.  0.
         13    1    1    2    0    0 -0.14005195226E+02  0.96048338379E+01  0.94271758949E+02  0.95789216647E+02  0.10566000000E+00 0. -1.
        994    1    1    2    0    0  0.95910237633E+01 -0.69862779374E+01  0.19846406437E+01  0.17162218567E+03  0.17120000000E+03 0.  0.
        998    1    1    2    0    0  0.44141714626E+01 -0.26185559005E+01  0.14037435967E+04  0.14037885977E+04  0.10000000000E+02 0. -1.
</event>
<event>
 5    1  0.9130022E-009  0.3812750E+03  0.7957747E-01  0.3445625E+00
         13   -1    0    0    0    0  0.00000000000E+00  0.00000000000E+00  0.14999999963E+04  0.15000000000E+04  0.10566000000E+00 0.  1.
        994   -1    0    0    0    0 -0.00000000000E+00 -0.00000000000E+00  0.11368683772E-12  0.17120000000E+03  0.17120000000E+03 0.  0.
         13    1    1    2    0    0  0.11735338773E+02 -0.14994842825E+02  0.53694921564E+02  0.56971214251E+02  0.10566000000E+00 0.  1.
        994    1    1    2    0    0  0.92820309361E+01  0.55277107639E+01  0.38795129982E+01  0.17158438829E+03  0.17120000000E+03 0.  0.
        998    1    1    2    0    0 -0.21017369709E+02  0.94671320615E+01  0.14424255617E+04  0.14426443975E+04  0.10000000000E+02 0.  1.
</event>
<event>
 5    1  0.9130022E-009  0.4007204E+03  0.7957747E-01  0.3365619E+00
         13   -1    0    0    0    0  0.00000000000E+00  0.00000000000E+00  0.14999999963E+04  0.15000000000E+04  0.10566000000E+00 0. -1.
        994   -1    0    0    0    0 -0.00000000000E+00 -0.00000000000E+00  0.11368683772E-12  0.17120000000E+03  0.17120000000E+03 0.  0.
         13    1    1    2    0    0  0.15096493469E+02 -0.38215030263E+01 -0.83393631740E+01  0.17665337320E+02  0.10566000000E+00 0. -1.
        994    1    1    2    0    0 -0.17390131459E+02  0.65973496082E+01  0.29570704141E+02  0.17472781186E+03  0.17120000000E+03 0.  0.
        998    1    1    2    0    0  0.22936379895E+01 -0.27758465819E+01  0.14787686553E+04  0.14788068508E+04  0.10000000000E+02 0. -1.
</event>
<event>
 5    1  0.9130022E-009  0.3787405E+03  0.7957747E-01  0.3456661E+00
         13   -1    0    0    0    0  0.00000000000E+00  0.00000000000E+00  0.14999999963E+04  0.15000000000E+04  0.10566000000E+00 0. -1.
        994   -1    0    0    0    0 -0.00000000000E+00 -0.00000000000E+00  0.11368683772E-12  0.17120000000E+03  0.17120000000E+03 0.  0.
         13    1    1    2    0    0 -0.10314811882E+02 -0.51469799848E+01 -0.30655436150E+01  0.11928766441E+02  0.10566000000E+00 0. -1.
        994    1    1    2    0    0  0.29790075897E+02 -0.48085207735E+02  0.27269548470E+02  0.18235323989E+03  0.17120000000E+03 0.  0.
        998    1    1    2    0    0 -0.19475264015E+02  0.53232187719E+02  0.14757959914E+04  0.14769179937E+04  0.10000000000E+02 0. -1.
</event>
<event>
 5    1  0.9130022E-009  0.3845907E+03  0.7957747E-01  0.3431410E+00
         13   -1    0    0    0    0  0.00000000000E+00  0.00000000000E+00  0.14999999963E+04  0.15000000000E+04  0.10566000000E+00 0. -1.
        994   -1    0    0    0    0 -0.00000000000E+00 -0.00000000000E+00  0.11368683772E-12  0.17120000000E+03  0.17120000000E+03 0.  0.
         13    1    1    2    0    0 -0.15816651071E+01 -0.11346277269E+02  0.33975986337E+02  0.35855522364E+02  0.10566000000E+00 0. -1.
        994    1    1    2    0    0 -0.36722037585E+01  0.18090353402E+02  0.29563531274E+01  0.17221767038E+03  0.17120000000E+03 0.  0.
        998    1    1    2    0    0  0.52538688656E+01 -0.67440761334E+01  0.14630676568E+04  0.14631268073E+04  0.10000000000E+02 0. -1.
</event>
<event>
 5    1  0.9130022E-009  0.3803944E+03  0.7957747E-01  0.3449443E+00
         13   -1    0    0    0    0  0.00000000000E+00  0.00000000000E+00  0.14999999963E+04  0.15000000000E+04  0.10566000000E+00 0.  1.
        994   -1    0    0    0    0 -0.00000000000E+00 -0.00000000000E+00  0.11368683772E-12  0.17120000000E+03  0.17120000000E+03 0.  0.
         13    1    1    2    0    0  0.33437826565E+02 -0.33015503902E+02  0.27213582347E+03  0.27616304844E+03  0.10566000000E+00 0.  1.
        994    1    1    2    0    0 -0.26056490861E+02  0.15986257508E+02  0.70603642654E+01  0.17405111286E+03  0.17120000000E+03 0.  0.
        998    1    1    2    0    0 -0.73813357036E+01  0.17029246394E+02  0.12208038085E+04  0.12209858387E+04  0.10000000000E+02 0.  1.
</event>
<event>
 5    1  0.9130022E-009  0.3729309E+03  0.7957747E-01  0.3482528E+00
         13   -1    0    0    0    0  0.00000000000E+00  0.00000000000E+00  0.14999999963E+04  0.15000000000E+04  0.10566000000E+00 0.  1.
        994   -1    0    0    0    0 -0.00000000000E+00 -0.00000000000E+00  0.11368683772E-12  0.17120000000E+03  0.17120000000E+03 0.  0.
         13    1    1    2    0    0  0.44898270596E+02 -0.14401375958E+02  0.13822950978E+03  0.14605020667E+03  0.10566000000E+00 0.  1.
        994    1    1    2    0    0 -0.30888820936E+02  0.97120080127E+01  0.11342456588E+02  0.17460393375E+03  0.17120000000E+03 0.  0.
        998    1    1    2    0    0 -0.14009449659E+02  0.46893679449E+01  0.13504280299E+04  0.13505458596E+04  0.10000000000E+02 0.  1.
</event>
<event>
 5    1  0.9130022E-009  0.3708594E+03  0.7957747E-01  0.3491951E+00
         13   -1    0    0    0    0  0.00000000000E+00  0.00000000000E+00  0.14999999963E+04  0.15000000000E+04  0.10566000000E+00 0. -1.
        994   -1    0    0    0    0 -0.00000000000E+00 -0.00000000000E+00  0.11368683772E-12  0.17120000000E+03  0.17120000000E+03 0.  0.
         13    1    1    2    0    0 -0.15148181338E+02  0.45314977216E+02  0.12942422477E+03  0.13796215307E+03  0.10566000000E+00 0. -1.
        994    1    1    2    0    0  0.23444676087E+02 -0.17144672667E+02  0.11734316149E+02  0.17404231328E+03  0.17120000000E+03 0.  0.
        998    1    1    2    0    0 -0.82964947493E+01 -0.28170304549E+02  0.13588414554E+04  0.13591955336E+04  0.10000000000E+02 0. -1.
</event>
<event>
 5    1  0.1573818E-008  0.3858851E+03  0.7957747E-01  0.3425927E+00
         13   -1    0    0    0    0  0.00000000000E+00  0.00000000000E+00  0.14999999963E+04  0.15000000000E+04  0.10566000000E+00 0.  1.
        994   -1    0    0    0    0 -0.00000000000E+00 -0.00000000000E+00  0.11368683772E-12  0.17120000000E+03  0.17120000000E+03 0.  0.
         13    1    1    2    0    0  0.10336000201E+02  0.73100259335E+01  0.68431302522E+02  0.69592554977E+02  0.10566000000E+00 0.  1.
        994    1    1    2    0    0 -0.75450671129E+01 -0.22270716993E+01  0.13942881813E+01  0.17138632362E+03  0.17120000000E+03 0.  0.
        998    1    1    2    0    0 -0.27909330885E+01 -0.50829542342E+01  0.14301744056E+04  0.14302211214E+04  0.10000000000E+02 0.  1.
</event>
<event>
 5    1  0.9130022E-009  0.3837375E+03  0.7957747E-01  0.3435044E+00
         13   -1    0    0    0    0  0.00000000000E+00  0.00000000000E+00  0.14999999963E+04  0.15000000000E+04  0.10566000000E+00 0. -1.
        994   -1    0    0    0    0 -0.00000000000E+00 -0.00000000000E+00  0.11368683772E-12  0.17120000000E+03  0.17120000000E+03 0.  0.
         13    1    1    2    0    0  0.20994660978E+02 -0.44657879722E+00  0.99577608771E+02  0.10176780707E+03  0.10566000000E+00 0. -1.
        994    1    1    2    0    0 -0.95890899234E+01 -0.46553782826E+01  0.26335444496E+01  0.17155173782E+03  0.17120000000E+03 0.  0.
        998    1    1    2    0    0 -0.11405571054E+02  0.51019570798E+01  0.13977888431E+04  0.13978804551E+04  0.10000000000E+02 0. -1.
</event>
<event>
 5    1  0.9130022E-009  0.3859398E+03  0.7957747E-01  0.3425696E+00
         13   -1    0    0    0    0  0.00000000000E+00  0.00000000000E+00  0.14999999963E+04  0.15000000000E+04  0.10566000000E+00 0. -1.
        994   -1    0    0    0    0 -0.00000000000E+00 -0.00000000000E+00  0.11368683772E-12  0.17120000000E+03  0.17120000000E+03 0.  0.
         13    1    1    2    0    0 -0.60406290733E+01  0.12677407818E+02  0.83533170785E+02  0.84705416911E+02  0.10566000000E+00 0. -1.
        994    1    1    2    0    0  0.18795335762E+02 -0.48301271455E+01  0.23999651996E+01  0.17231307149E+03  0.17120000000E+03 0.  0.
        998    1    1    2    0    0 -0.12754706689E+02 -0.78472806730E+01  0.14140668603E+04  0.14141815116E+04  0.10000000000E+02 0. -1.
</event>
<event>
 5    1  0.9130022E-009  0.3716489E+03  0.7957747E-01  0.3488347E+00
         13   -1    0    0    0    0  0.00000000000E+00  0.00000000000E+00  0.14999999963E+04  0.15000000000E+04  0.10566000000E+00 0.  1.
        994   -1    0    0    0    0 -0.00000000000E+00 -0.00000000000E+00  0.11368683772E-12  0.17120000000E+03  0.17120000000E+03 0.  0.
         13    1    1    2    0    0 -0.57289813768E+02  0.14568113762E+03  0.70789725387E+03  0.72499906884E+03  0.10566000000E+00 0.  1.
        994    1    1    2    0    0  0.41985334397E+02 -0.15061152667E+03  0.97794053242E+02  0.25163409372E+03  0.17120000000E+03 0.  0.
        998    1    1    2    0    0  0.15304479371E+02  0.49303890509E+01  0.69430868917E+03  0.69456683745E+03  0.10000000000E+02 0.  1.
</event>
<event>
 5    1  0.9130022E-009  0.3841500E+03  0.7957747E-01  0.3433285E+00
         13   -1    0    0    0    0  0.00000000000E+00  0.00000000000E+00  0.14999999963E+04  0.15000000000E+04  0.10566000000E+00 0.  1.
        994   -1    0    0    0    0 -0.00000000000E+00 -0.00000000000E+00  0.11368683772E-12  0.17120000000E+03  0.17120000000E+03 0.  0.
         13    1    1    2    0    0  0.11333977472E+02 -0.56898500223E+01  0.37797986433E+02  0.39868940054E+02  0.10566000000E+00 0.  1.
        994    1    1    2    0    0 -0.10888065721E+02  0.93083697473E+01  0.27296880716E+01  0.17181992585E+03  0.17120000000E+03 0.  0.
        998    1    1    2    0    0 -0.44591175074E+00 -0.36185197250E+01  0.14594723218E+04  0.14595111341E+04  0.10000000000E+02 0.  1.
</event>
<event>
 5    1  0.9130022E-009  0.3775926E+03  0.7957747E-01  0.3461708E+00
         13   -1    0    0    0    0  0.00000000000E+00  0.00000000000E+00  0.14999999963E+04  0.15000000000E+04  0.10566000000E+00 0.  1.
        994   -1    0    0    0    0 -0.00000000000E+00 -0.00000000000E+00  0.11368683772E-12  0.17120000000E+03  0.17120000000E+03 0.  0.
         13    1    1    2    0    0 -0.56536353554E+02 -0.20017499644E+02  0.27646496035E+03  0.28289564336E+03  0.10566000000E+00 0.  1.
        994    1    1    2    0    0  0.61067530517E+02  0.48566334921E+01  0.18105534439E+02  0.18272952840E+03  0.17120000000E+03 0.  0.
        998    1    1    2    0    0 -0.45311769628E+01  0.15160866152E+02  0.12054295015E+04  0.12055748282E+04  0.10000000000E+02 0.  1.
</event>
<event>
 5    1  0.9130022E-009  0.3715733E+03  0.7957747E-01  0.3488692E+00
         13   -1    0    0    0    0  0.00000000000E+00  0.00000000000E+00  0.14999999963E+04  0.15000000000E+04  0.10566000000E+00 0.  1.
        994   -1    0    0    0    0 -0.00000000000E+00 -0.00000000000E+00  0.11368683772E-12  0.17120000000E+03  0.17120000000E+03 0.  0.
         13    1    1    2    0    0  0.72110914184E+02  0.20807418813E+02  0.24345048146E+03  0.25475690512E+03  0.10566000000E+00 0.  1.
        994    1    1    2    0    0 -0.57784847272E+02  0.51137639368E+02  0.33009508845E+02  0.19066518929E+03  0.17120000000E+03 0.  0.
        998    1    1    2    0    0 -0.14326066912E+02 -0.71945058180E+02  0.12235400060E+04  0.12257779056E+04  0.10000000000E+02 0.  1.
</event>
<event>
 5    1  0.9130022E-009  0.3837293E+03  0.7957747E-01  0.3435079E+00
         13   -1    0    0    0    0  0.00000000000E+00  0.00000000000E+00  0.14999999963E+04  0.15000000000E+04  0.10566000000E+00 0. -1.
        994   -1    0    0    0    0 -0.00000000000E+00 -0.00000000000E+00  0.11368683772E-12  0.17120000000E+03  0.17120000000E+03 0.  0.
         13    1    1    2    0    0 -0.23903868695E+02  0.10375398348E+02  0.14034806321E+03  0.14274674722E+03  0.10566000000E+00 0. -1.
        994    1    1    2    0    0  0.28724776786E+02  0.55109994689E+01  0.50924879464E+01  0.17375516496E+03  0.17120000000E+03 0.  0.
        998    1    1    2    0    0 -0.48209080911E+01 -0.15886397817E+02  0.13545594451E+04  0.13546980878E+04  0.10000000000E+02 0. -1.
</event>
<event>
 5    1  0.9130022E-009  0.3827448E+03  0.7957747E-01  0.3439293E+00
         13   -1    0    0    0    0  0.00000000000E+00  0.00000000000E+00  0.14999999963E+04  0.15000000000E+04  0.10566000000E+00 0.  1.
        994   -1    0    0    0    0 -0.00000000000E+00 -0.00000000000E+00  0.11368683772E-12  0.17120000000E+03  0.17120000000E+03 0.  0.
         13    1    1    2    0    0 -0.11270214549E+02 -0.26136394253E+02  0.15858530083E+03  0.16111932735E+03  0.10566000000E+00 0.  1.
        994    1    1    2    0    0  0.73924969200E+01  0.42203304866E+01  0.29940525932E+01  0.17143764041E+03  0.17120000000E+03 0.  0.
        998    1    1    2    0    0  0.38777176287E+01  0.21916063766E+02  0.13384206429E+04  0.13386430322E+04  0.10000000000E+02 0. -1.
</event>
<event>
 5    1  0.9130022E-009  0.3860289E+03  0.7957747E-01  0.3425320E+00
         13   -1    0    0    0    0  0.00000000000E+00  0.00000000000E+00  0.14999999963E+04  0.15000000000E+04  0.10566000000E+00 0.  1.
        994   -1    0    0    0    0 -0.00000000000E+00 -0.00000000000E+00  0.11368683772E-12  0.17120000000E+03  0.17120000000E+03 0.  0.
         13    1    1    2    0    0 -0.50292754464E+01 -0.10386921229E+02  0.61070108402E+02  0.62151034170E+02  0.10566000000E+00 0.  1.
        994    1    1    2    0    0  0.16377412210E+02 -0.11821343933E+01  0.20044069759E+01  0.17199731021E+03  0.17120000000E+03 0.  0.
        998    1    1    2    0    0 -0.11348136764E+02  0.11569055622E+02  0.14369254809E+04  0.14370516556E+04  0.10000000000E+02 0.  1.
</event>
<event>
 5    1  0.9130022E-009  0.3792801E+03  0.7957747E-01  0.3454299E+00
         13   -1    0    0    0    0  0.00000000000E+00  0.00000000000E+00  0.14999999963E+04  0.15000000000E+04  0.10566000000E+00 0.  1.
        994   -1    0    0    0    0 -0.00000000000E+00 -0.00000000000E+00  0.11368683772E-12  0.17120000000E+03  0.17120000000E+03 0.  0.
         13    1    1    2    0    0 -0.19520250693E+02 -0.33570547349E+01  0.40909015878E+02  0.45451828871E+02  0.10566000000E+00 0.  1.
        994    1    1    2    0    0  0.21454598540E+02 -0.59393871470E+01  0.61593832964E+01  0.17275113349E+03  0.17120000000E+03 0.  0.
        998    1    1    2    0    0 -0.19343478470E+01  0.92964418820E+01  0.14529315971E+04  0.14529970376E+04  0.10000000000E+02 0.  1.
</event>
<event>
 5    1  0.9130022E-009  0.3797698E+03  0.7957747E-01  0.3452162E+00
         13   -1    0    0    0    0  0.00000000000E+00  0.00000000000E+00  0.14999999963E+04  0.15000000000E+04  0.10566000000E+00 0. -1.
        994   -1    0    0    0    0 -0.00000000000E+00 -0.00000000000E+00  0.11368683772E-12  0.17120000000E+03  0.17120000000E+03 0.  0.
         13    1    1    2    0    0 -0.53253534890E+01  0.13805264729E+02  0.23800612232E+02  0.28025435423E+02  0.10566000000E+00 0. -1.
        994    1    1    2    0    0  0.46467913574E+01 -0.12699208133E+02  0.48613988300E+01  0.17180202489E+03  0.17120000000E+03 0.  0.
        998    1    1    2    0    0  0.67856213162E+00 -0.11060565956E+01  0.14713379852E+04  0.14713725397E+04  0.10000000000E+02 0. -1.
</event>
<event>
 5    1  0.9130022E-009  0.3978328E+03  0.7957747E-01  0.3377006E+00
         13   -1    0    0    0    0  0.00000000000E+00  0.00000000000E+00  0.14999999963E+04  0.15000000000E+04  0.10566000000E+00 0. -1.
        994   -1    0    0    0    0 -0.00000000000E+00 -0.00000000000E+00  0.11368683772E-12  0.17120000000E+03  0.17120000000E+03 0.  0.
         13    1    1    2    0    0 -0.57725889924E+02 -0.72362436144E+02  0.14268777615E+03  0.17008354758E+03  0.10566000000E+00 0. -1.
        994    1    1    2    0    0  0.63176340231E+02  0.59424679433E+02  0.56319657627E+02  0.20000971558E+03  0.17120000000E+03 0.  0.
        998    1    1    2    0    0 -0.54504503071E+01  0.12937756711E+02  0.13009925625E+04  0.13011067368E+04  0.10000000000E+02 0. -1.
</event>
<event>
 5    1  0.9130022E-009  0.3729379E+03  0.7957747E-01  0.3482497E+00
         13   -1    0    0    0    0  0.00000000000E+00  0.00000000000E+00  0.14999999963E+04  0.15000000000E+04  0.10566000000E+00 0. -1.
        994   -1    0    0    0    0 -0.00000000000E+00 -0.00000000000E+00  0.11368683772E-12  0.17120000000E+03  0.17120000000E+03 0.  0.
         13    1    1    2    0    0  0.34842691536E+02 -0.30538294550E+02  0.12650894666E+03  0.13472611230E+03  0.10566000000E+00 0. -1.
        994    1    1    2    0    0 -0.40564179663E+02  0.20900497303E+02  0.14902955262E+02  0.17780276020E+03  0.17120000000E+03 0.  0.
        998    1    1    2    0    0  0.57214881269E+01  0.96377972461E+01  0.13585880944E+04  0.13586711275E+04  0.10000000000E+02 0. -1.
</event>
<event>
 5    1  0.9130022E-009  0.3844071E+03  0.7957747E-01  0.3432191E+00
         13   -1    0    0    0    0  0.00000000000E+00  0.00000000000E+00  0.14999999963E+04  0.15000000000E+04  0.10566000000E+00 0. -1.
        994   -1    0    0    0    0 -0.00000000000E+00 -0.00000000000E+00  0.11368683772E-12  0.17120000000E+03  0.17120000000E+03 0.  0.
         13    1    1    2    0    0  0.83522328706E+01 -0.15249886178E+02  0.78500747025E+02  0.80403341161E+02  0.10566000000E+00 0. -1.
        994    1    1    2    0    0 -0.13390902380E+01  0.11583596597E+02  0.23729512370E+01  0.17161306410E+03  0.17120000000E+03 0.  0.
        998    1    1    2    0    0 -0.70131426326E+01  0.36662895808E+01  0.14191262980E+04  0.14191835947E+04  0.10000000000E+02 0. -1.
</event>
<event>
 5    1  0.9130022E-009  0.3810144E+03  0.7957747E-01  0.3446753E+00
         13   -1    0    0    0    0  0.00000000000E+00  0.00000000000E+00  0.14999999963E+04  0.15000000000E+04  0.10566000000E+00 0. -1.
        994   -1    0    0    0    0 -0.00000000000E+00 -0.00000000000E+00  0.11368683772E-12  0.17120000000E+03  0.17120000000E+03 0.  0.
         13    1    1    2    0    0 -0.13561710407E+02  0.36743678739E+02  0.21426151858E+03  0.21781190837E+03  0.10566000000E+00 0. -1.
        994    1    1    2    0    0 -0.92617845232E+00 -0.22261985500E+02  0.52777603114E+01  0.17272448743E+03  0.17120000000E+03 0.  0.
        998    1    1    2    0    0  0.14487888859E+02 -0.14481693240E+02  0.12804607174E+04  0.12806636042E+04  0.10000000000E+02 0. -1.
</event>
<event>
 5    1  0.9130022E-009  0.3823308E+03  0.7957747E-01  0.3441072E+00
         13   -1    0    0    0    0  0.00000000000E+00  0.00000000000E+00  0.14999999963E+04  0.15000000000E+04  0.10566000000E+00 0. -1.
        994   -1    0    0    0    0 -0.00000000000E+00 -0.00000000000E+00  0.11368683772E-12  0.17120000000E+03  0.17120000000E+03 0.  0.
         13    1    1    2    0    0  0.14988231368E+03  0.17330200297E+03  0.10276379299E+04  0.10528713208E+04  0.10566000000E+00 0. -1.
        994    1    1    2    0    0 -0.14306239490E+03 -0.19839479189E+03  0.23664069007E+03  0.38096666321E+03  0.17120000000E+03 0.  0.
        998    1    1    2    0    0 -0.68199187744E+01  0.25092788924E+02  0.23572137635E+03  0.23736201596E+03  0.10000000000E+02 0.  1.
</event>
<event>
 5    1  0.9130022E-009  0.3787735E+03  0.7957747E-01  0.3456516E+00
         13   -1    0    0    0    0  0.00000000000E+00  0.00000000000E+00  0.14999999963E+04  0.15000000000E+04  0.10566000000E+00 0. -1.
        994   -1    0    0    0    0 -0.00000000000E+00 -0.00000000000E+00  0.11368683772E-12  0.17120000000E+03  0.17120000000E+03 0.  0.
         13    1    1    2    0    0 -0.39830366960E+01 -0.62569544693E+02  0.35277642575E+03  0.35830438211E+03  0.10566000000E+00 0. -1.
        994    1    1    2    0    0 -0.21120349390E+00  0.52136640718E+02  0.13932226209E+02  0.17950437554E+03  0.17120000000E+03 0.  0.
        998    1    1    2    0    0  0.41942401899E+01  0.10432903975E+02  0.11332913443E+04  0.11333912424E+04  0.10000000000E+02 0. -1.
</event>
<event>
 5    1  0.9130022E-009  0.3823339E+03  0.7957747E-01  0.3441059E+00
         13   -1    0    0    0    0  0.00000000000E+00  0.00000000000E+00  0.14999999963E+04  0.15000000000E+04  0.10566000000E+00 0. -1.
        994   -1    0    0    0    0 -0.00000000000E+00 -0.00000000000E+00  0.11368683772E-12  0.17120000000E+03  0.17120000000E+03 0.  0.
         13    1    1    2    0    0 -0.20453841235E+02  0.16884894195E+02  0.11140801303E+03  0.11452168268E+03  0.10566000000E+00 0. -1.
        994    1    1    2    0    0  0.38279694770E+02  0.53029599335E+01  0.79297913264E+01  0.17568659029E+03  0.17120000000E+03 0.  0.
        998    1    1    2    0    0 -0.17825853535E+02 -0.22187854128E+02  0.13806621919E+04  0.13809917270E+04  0.10000000000E+02 0. -1.
</event>
<event>
 5    1  0.9130022E-009  0.3797075E+03  0.7957747E-01  0.3452433E+00
         13   -1    0    0    0    0  0.00000000000E+00  0.00000000000E+00  0.14999999963E+04  0.15000000000E+04  0.10566000000E+00 0.  1.
        994   -1    0    0    0    0 -0.00000000000E+00 -0.00000000000E+00  0.11368683772E-12  0.17120000000E+03  0.17120000000E+03 0.  0.
         13    1    1    2    0    0 -0.25625573161E+02 -0.14925890273E+02  0.93154571218E+02  0.97761124703E+02  0.10566000000E+00 0.  1.
        994    1    1    2    0    0  0.33751023351E+02  0.12055225565E+02  0.85908273102E+01  0.17512196423E+03  0.17120000000E+03 0.  0.
        998    1    1    2    0    0 -0.81254501898E+01  0.28706647079E+01  0.13982545978E+04  0.13983169111E+04  0.10000000000E+02 0.  1.
</event>
<event>
 5    1  0.9130022E-009  0.3743110E+03  0.7957747E-01  0.3476310E+00
         13   -1    0    0    0    0  0.00000000000E+00  0.00000000000E+00  0.14999999963E+04  0.15000000000E+04  0.10566000000E+00 0.  1.
        994   -1    0    0    0    0 -0.00000000000E+00 -0.00000000000E+00  0.11368683772E-12  0.17120000000E+03  0.17120000000E+03 0.  0.
         13    1    1    2    0    0  0.67896825827E+01  0.16583940979E+02  0.19349954731E+02  0.26373448771E+02  0.10566000000E+00 0.  1.
        994    1    1    2    0    0 -0.86201330763E+01 -0.20707165761E+02  0.87489514973E+01  0.17288457872E+03  0.17120000000E+03 0.  0.
        998    1    1    2    0    0  0.18304504937E+01  0.41232247826E+01  0.14719010901E+04  0.14719419725E+04  0.10000000000E+02 0.  1.
</event>
<event>
 5    1  0.9130022E-009  0.3847920E+03  0.7957747E-01  0.3430555E+00
         13   -1    0    0    0    0  0.00000000000E+00  0.00000000000E+00  0.14999999963E+04  0.15000000000E+04  0.10566000000E+00 0. -1.
        994   -1    0    0    0    0 -0.00000000000E+00 -0.00000000000E+00  0.11368683772E-12  0.17120000000E+03  0.17120000000E+03 0.  0.
         13    1    1    2    0    0  0.10844224682E+02 -0.16438373057E+02  0.99608722499E+02  0.10153682130E+03  0.10566000000E+00 0. -1.
        994    1    1    2    0    0 -0.58998858856E+02 -0.82442361017E+00  0.13275888442E+02  0.18156881405E+03  0.17120000000E+03 0.  0.
        998    1    1    2    0    0  0.48154634174E+02  0.17262796668E+02  0.13871153853E+04  0.13880943647E+04  0.10000000000E+02 0. -1.
</event>
<event>
 5    1  0.9130022E-009  0.3824863E+03  0.7957747E-01  0.3440403E+00
         13   -1    0    0    0    0  0.00000000000E+00  0.00000000000E+00  0.14999999963E+04  0.15000000000E+04  0.10566000000E+00 0. -1.
        994   -1    0    0    0    0 -0.00000000000E+00 -0.00000000000E+00  0.11368683772E-12  0.17120000000E+03  0.17120000000E+03 0.  0.
         13    1    1    2    0    0 -0.11668807054E+02  0.23632659965E+02  0.11095332028E+03  0.11404084409E+03  0.10566000000E+00 0. -1.
        994    1    1    2    0    0  0.11254146415E+02 -0.25601997000E+02  0.54808707603E+01  0.17355574899E+03  0.17120000000E+03 0.  0.
        998    1    1    2    0    0  0.41466063909E+00  0.19693370349E+01  0.13835658052E+04  0.13836034069E+04  0.10000000000E+02 0. -1.
</event>
<event>
 5    1  0.9130022E-009  0.3807802E+03  0.7957747E-01  0.3447768E+00
         13   -1    0    0    0    0  0.00000000000E+00  0.00000000000E+00  0.14999999963E+04  0.15000000000E+04  0.10566000000E+00 0.  1.
        994   -1    0    0    0    0 -0.00000000000E+00 -0.00000000000E+00  0.11368683772E-12  0.17120000000E+03  0.17120000000E+03 0.  0.
         13    1    1    2    0    0  0.35362703488E+01  0.30236695304E+02  0.11154706404E+03  0.11562664750E+03  0.10566000000E+00 0.  1.
        994    1    1    2    0    0  0.19103021040E+02 -0.38209194119E+02  0.98485713136E+01  0.17672380226E+03  0.17120000000E+03 0.  0.
        998    1    1    2    0    0 -0.22639291389E+02  0.79724988148E+01  0.13786043609E+04  0.13788495502E+04  0.10000000000E+02 0.  1.
</event>
<event>
 5    1  0.9982265E-009  0.3848839E+03  0.7957747E-01  0.3430165E+00
         13   -1    0    0    0    0  0.00000000000E+00  0.00000000000E+00  0.14999999963E+04  0.15000000000E+04  0.10566000000E+00 0.  1.
        994   -1    0    0    0    0 -0.00000000000E+00 -0.00000000000E+00  0.11368683772E-12  0.17120000000E+03  0.17120000000E+03 0.  0.
         13    1    1    2    0    0 -0.17325627874E+02  0.42399986303E+00  0.99354587361E+02  0.10085485784E+03  0.10566000000E+00 0.  1.
        994    1    1    2    0    0 -0.26782123162E+01  0.63909222731E+01  0.18457534545E+01  0.17135011968E+03  0.17120000000E+03 0.  0.
        998    1    1    2    0    0  0.20003840190E+02 -0.68149221362E+01  0.13987996555E+04  0.13989950225E+04  0.10000000000E+02 0.  1.
</event>
<event>
 5    1  0.9130022E-009  0.3740817E+03  0.7957747E-01  0.3477340E+00
         13   -1    0    0    0    0  0.00000000000E+00  0.00000000000E+00  0.14999999963E+04  0.15000000000E+04  0.10566000000E+00 0. -1.
        994   -1    0    0    0    0 -0.00000000000E+00 -0.00000000000E+00  0.11368683772E-12  0.17120000000E+03  0.17120000000E+03 0.  0.
         13    1    1    2    0    0  0.58151768913E+01  0.28885577249E+02  0.55328513591E+02  0.62685312757E+02  0.10566000000E+00 0. -1.
        994    1    1    2    0    0 -0.10518421801E+02 -0.32179757588E+02  0.11069240611E+02  0.17486606899E+03  0.17120000000E+03 0.  0.
        998    1    1    2    0    0  0.47032449098E+01  0.32941803397E+01  0.14336022421E+04  0.14336486183E+04  0.10000000000E+02 0. -1.
</event>
<event>
 5    1  0.9130022E-009  0.3795221E+03  0.7957747E-01  0.3453242E+00
         13   -1    0    0    0    0  0.00000000000E+00  0.00000000000E+00  0.14999999963E+04  0.15000000000E+04  0.10566000000E+00 0.  1.
        994   -1    0    0    0    0 -0.00000000000E+00 -0.00000000000E+00  0.11368683772E-12  0.17120000000E+03  0.17120000000E+03 0.  0.
         13    1    1    2    0    0 -0.16543156709E+02  0.27699329083E+01  0.30523556711E+02  0.34828827723E+02  0.10566000000E+00 0.  1.
        994    1    1    2    0    0  0.96811706704E+01 -0.38052442380E+01  0.47369705582E+01  0.17158112903E+03  0.17120000000E+03 0.  0.
        998    1    1    2    0    0  0.68619860382E+01  0.10353113296E+01  0.14647394690E+04  0.14647900432E+04  0.10000000000E+02 0.  1.
</event>
<event>
 5    1  0.9130022E-009  0.3828024E+03  0.7957747E-01  0.3439046E+00
         13   -1    0    0    0    0  0.00000000000E+00  0.00000000000E+00  0.14999999963E+04  0.15000000000E+04  0.10566000000E+00 0.  1.
        994   -1    0    0    0    0 -0.00000000000E+00 -0.00000000000E+00  0.11368683772E-12  0.17120000000E+03  0.17120000000E+03 0.  0.
         13    1    1    2    0    0 -0.32276550790E+00 -0.10216092686E+02  0.18065836113E+02  0.20757127110E+02  0.10566000000E+00 0.  1.
        994    1    1    2    0    0 -0.15769710107E+01  0.82801593795E+01  0.29605201494E+01  0.17143293895E+03  0.17120000000E+03 0.  0.
        998    1    1    2    0    0  0.18997365186E+01  0.19359333066E+01  0.14789736400E+04  0.14790099339E+04  0.10000000000E+02 0.  1.
</event>
<event>
 5    1  0.9130022E-009  0.3787062E+03  0.7957747E-01  0.3456812E+00
         13   -1    0    0    0    0  0.00000000000E+00  0.00000000000E+00  0.14999999963E+04  0.15000000000E+04  0.10566000000E+00 0.  1.
        994   -1    0    0    0    0 -0.00000000000E+00 -0.00000000000E+00  0.11368683772E-12  0.17120000000E+03  0.17120000000E+03 0.  0.
         13    1    1    2    0    0 -0.10928417306E+02  0.32426879355E+02  0.10721133478E+03  0.11253983419E+03  0.10566000000E+00 0.  1.
        994    1    1    2    0    0  0.37866176763E+02 -0.34539056792E+02  0.13657664738E+02  0.17922824999E+03  0.17120000000E+03 0.  0.
        998    1    1    2    0    0 -0.26937759457E+02  0.21121774372E+01  0.13791309968E+04  0.13794319158E+04  0.10000000000E+02 0.  1.
</event>
<event>
 5    1  0.9130022E-009  0.3824024E+03  0.7957747E-01  0.3440764E+00
         13   -1    0    0    0    0  0.00000000000E+00  0.00000000000E+00  0.14999999963E+04  0.15000000000E+04  0.10566000000E+00 0.  1.
        994   -1    0    0    0    0 -0.00000000000E+00 -0.00000000000E+00  0.11368683772E-12  0.17120000000E+03  0.17120000000E+03 0.  0.
         13    1    1    2    0    0  0.97533727156E+01  0.12661481761E+02  0.41171476431E+02  0.44164952567E+02  0.10566000000E+00 0.  1.
        994    1    1    2    0    0 -0.12873610444E+02 -0.14987026496E+02  0.42209782146E+01  0.17238792726E+03  0.17120000000E+03 0.  0.
        998    1    1    2    0    0  0.31202377283E+01  0.23255447352E+01  0.14546075416E+04  0.14546471202E+04  0.10000000000E+02 0.  1.
</event>
<event>
 5    1  0.1155706E-008  0.3860161E+03  0.7957747E-01  0.3425374E+00
         13   -1    0    0    0    0  0.00000000000E+00  0.00000000000E+00  0.14999999963E+04  0.15000000000E+04  0.10566000000E+00 0.  1.
        994   -1    0    0    0    0 -0.00000000000E+00 -0.00000000000E+00  0.11368683772E-12  0.17120000000E+03  0.17120000000E+03 0.  0.
         13    1    1    2    0    0  0.10309448266E+02  0.10636733669E+01  0.46085294989E+02  0.47236444647E+02  0.10566000000E+00 0.  1.
        994    1    1    2    0    0 -0.14029389018E+02 -0.25409859903E+01  0.17931185258E+01  0.17180202455E+03  0.17120000000E+03 0.  0.
        998    1    1    2    0    0  0.37199407521E+01  0.14773126234E+01  0.14521215828E+04  0.14521615308E+04  0.10000000000E+02 0.  1.
</event>
<event>
 5    1  0.9130022E-009  0.3788110E+03  0.7957747E-01  0.3456352E+00
         13   -1    0    0    0    0  0.00000000000E+00  0.00000000000E+00  0.14999999963E+04  0.15000000000E+04  0.10566000000E+00 0. -1.
        994   -1    0    0    0    0 -0.00000000000E+00 -0.00000000000E+00  0.11368683772E-12  0.17120000000E+03  0.17120000000E+03 0.  0.
         13    1    1    2    0    0  0.36545784481E+02 -0.78545682733E+01  0.12272062416E+03  0.12828737804E+03  0.10566000000E+00 0. -1.
        994    1    1    2    0    0 -0.49536710895E+02  0.33249848322E+02  0.16774644877E+02  0.18207214738E+03  0.17120000000E+03 0.  0.
        998    1    1    2    0    0  0.12990926414E+02 -0.25395280049E+02  0.13605047272E+04  0.13608404746E+04  0.10000000000E+02 0. -1.
</event>
<event>
 5    1  0.9130022E-009  0.3830842E+03  0.7957747E-01  0.3437838E+00
         13   -1    0    0    0    0  0.00000000000E+00  0.00000000000E+00  0.14999999963E+04  0.15000000000E+04  0.10566000000E+00 0.  1.
        994   -1    0    0    0    0 -0.00000000000E+00 -0.00000000000E+00  0.11368683772E-12  0.17120000000E+03  0.17120000000E+03 0.  0.
         13    1    1    2    0    0  0.16172724233E+02 -0.49031506318E+01  0.66540865318E+02  0.68653447230E+02  0.10566000000E+00 0.  1.
        994    1    1    2    0    0  0.24396487332E+02 -0.98990553057E+01  0.48815652173E+01  0.17328141726E+03  0.17120000000E+03 0.  0.
        998    1    1    2    0    0 -0.40569211565E+02  0.14802205937E+02  0.14285775657E+04  0.14292651355E+04  0.10000000000E+02 0.  1.
</event>
<event>
 5    1  0.9130022E-009  0.3801746E+03  0.7957747E-01  0.3450399E+00
         13   -1    0    0    0    0  0.00000000000E+00  0.00000000000E+00  0.14999999963E+04  0.15000000000E+04  0.10566000000E+00 0.  1.
        994   -1    0    0    0    0 -0.00000000000E+00 -0.00000000000E+00  0.11368683772E-12  0.17120000000E+03  0.17120000000E+03 0.  0.
         13    1    1    2    0    0  0.12451579422E+02  0.98641707785E+01  0.29123293873E+02  0.33174102932E+02  0.10566000000E+00 0.  1.
        994    1    1    2    0    0 -0.11097415452E+02 -0.11752807973E+02  0.49184738076E+01  0.17203171949E+03  0.17120000000E+03 0.  0.
        998    1    1    2    0    0 -0.13541639699E+01  0.18886371944E+01  0.14659582286E+04  0.14659941776E+04  0.10000000000E+02 0.  1.
</event>
<event>
 5    1  0.9130022E-009  0.3706770E+03  0.7957747E-01  0.3492785E+00
         13   -1    0    0    0    0  0.00000000000E+00  0.00000000000E+00  0.14999999963E+04  0.15000000000E+04  0.10566000000E+00 0.  1.
        994   -1    0    0    0    0 -0.00000000000E+00 -0.00000000000E+00  0.11368683772E-12  0.17120000000E+03  0.17120000000E+03 0.  0.
         13    1    1    2    0    0  0.29612189248E+02  0.40714776585E+02  0.10846661922E+03  0.11958090748E+03  0.10566000000E+00 0.  1.
        994    1    1    2    0    0 -0.18094425466E+02 -0.25709803425E+02  0.14768707379E+02  0.17468817059E+03  0.17120000000E+03 0.  0.
        998    1    1    2    0    0 -0.11517763782E+02 -0.15004973160E+02  0.13767646697E+04  0.13769309219E+04  0.10000000000E+02 0.  1.
</event>
<event>
 5    1  0.9130022E-009  0.3760864E+03  0.7957747E-01  0.3468378E+00
         13   -1    0    0    0    0  0.00000000000E+00  0.00000000000E+00  0.14999999963E+04  0.15000000000E+04  0.10566000000E+00 0.  1.
        994   -1    0    0    0    0 -0.00000000000E+00 -0.00000000000E+00  0.11368683772E-12  0.17120000000E+03  0.17120000000E+03 0.  0.
         13    1    1    2    0    0  0.17938537631E+02  0.17598460898E+02  0.47781798159E+02  0.53987112885E+02  0.10566000000E+00 0.  1.
        994    1    1    2    0    0 -0.16762997795E+02 -0.19453200104E+02  0.83584550502E+01  0.17331684529E+03  0.17120000000E+03 0.  0.
        998    1    1    2    0    0 -0.11755398360E+01  0.18547392060E+01  0.14438597431E+04  0.14438960418E+04  0.10000000000E+02 0.  1.
</event>
<event>
 5    1  0.9130022E-009  0.3811801E+03  0.7957747E-01  0.3446036E+00
         13   -1    0    0    0    0  0.00000000000E+00  0.00000000000E+00  0.14999999963E+04  0.15000000000E+04  0.10566000000E+00 0.  1.
        994   -1    0    0    0    0 -0.00000000000E+00 -0.00000000000E+00  0.11368683772E-12  0.17120000000E+03  0.17120000000E+03 0.  0.
         13    1    1    2    0    0 -0.50466810599E+02 -0.18755025473E+02  0.31792558821E+03  0.32245207513E+03  0.10566000000E+00 0.  1.
        994    1    1    2    0    0  0.51309418498E+02  0.22132729338E+02  0.14007123902E+02  0.18063264836E+03  0.17120000000E+03 0.  0.
        998    1    1    2    0    0 -0.84260789873E+00 -0.33777038653E+01  0.11680672842E+04  0.11681152765E+04  0.10000000000E+02 0.  0.
</event>
<event>
 5    1  0.9130022E-009  0.3838323E+03  0.7957747E-01  0.3434640E+00
         13   -1    0    0    0    0  0.00000000000E+00  0.00000000000E+00  0.14999999963E+04  0.15000000000E+04  0.10566000000E+00 0.  1.
        994   -1    0    0    0    0 -0.00000000000E+00 -0.00000000000E+00  0.11368683772E-12  0.17120000000E+03  0.17120000000E+03 0.  0.
         13    1    1    2    0    0 -0.20233774747E+02  0.55867715740E+02  0.35230656202E+03  0.35728214636E+03  0.10566000000E+00 0.  1.
        994    1    1    2    0    0  0.17015167379E+02 -0.10485166504E+03  0.40394385314E+02  0.20548609186E+03  0.17120000000E+03 0.  0.
        998    1    1    2    0    0  0.32186073673E+01  0.48983949304E+02  0.11072990489E+04  0.11084317618E+04  0.10000000000E+02 0.  1.
</event>
<event>
 5    1  0.9231384E-009  0.3830687E+03  0.7957747E-01  0.3437904E+00
         13   -1    0    0    0    0  0.00000000000E+00  0.00000000000E+00  0.14999999963E+04  0.15000000000E+04  0.10566000000E+00 0. -1.
        994   -1    0    0    0    0 -0.00000000000E+00 -0.00000000000E+00  0.11368683772E-12  0.17120000000E+03  0.17120000000E+03 0.  0.
         13    1    1    2    0    0  0.13665254377E+02  0.18220665666E+02  0.90927690155E+02  0.93736800860E+02  0.10566000000E+00 0. -1.
        994    1    1    2    0    0 -0.17651859041E+02 -0.23051916672E+02  0.53867541420E+01  0.17372805217E+03  0.17120000000E+03 0.  0.
        998    1    1    2    0    0  0.39866046647E+01  0.48312510068E+01  0.14036855520E+04  0.14037351470E+04  0.10000000000E+02 0. -1.
</event>
<event>
 5    1  0.9130022E-009  0.3734642E+03  0.7957747E-01  0.3480120E+00
         13   -1    0    0    0    0  0.00000000000E+00  0.00000000000E+00  0.14999999963E+04  0.15000000000E+04  0.10566000000E+00 0.  1.
        994   -1    0    0    0    0 -0.00000000000E+00 -0.00000000000E+00  0.11368683772E-12  0.17120000000E+03  0.17120000000E+03 0.  0.
         13    1    1    2    0    0 -0.18674347847E+02  0.23605487003E+02  0.55941647592E+02  0.63525029582E+02  0.10566000000E+00 0.  1.
        994    1    1    2    0    0  0.19554905308E+02 -0.22537956453E+02  0.10517798308E+02  0.17409887387E+03  0.17120000000E+03 0.  0.
        998    1    1    2    0    0 -0.88055746167E+00 -0.10675305496E+01  0.14335405504E+04  0.14335760965E+04  0.10000000000E+02 0.  1.
</event>
<event>
 5    1  0.9130022E-009  0.3732263E+03  0.7957747E-01  0.3481193E+00
         13   -1    0    0    0    0  0.00000000000E+00  0.00000000000E+00  0.14999999963E+04  0.15000000000E+04  0.10566000000E+00 0.  1.
        994   -1    0    0    0    0 -0.00000000000E+00 -0.00000000000E+00  0.11368683772E-12  0.17120000000E+03  0.17120000000E+03 0.  0.
         13    1    1    2    0    0  0.19335924819E+02  0.50542730886E+02  0.18050801030E+03  0.18844521374E+03  0.10566000000E+00 0.  1.
        994    1    1    2    0    0 -0.15370314487E+02 -0.38735228279E+02  0.13554516931E+02  0.17671963503E+03  0.17120000000E+03 0.  0.
        998    1    1    2    0    0 -0.39656103314E+01 -0.11807502607E+02  0.13059374690E+04  0.13060351512E+04  0.10000000000E+02 0.  1.
</event>
<event>
 5    1  0.9130022E-009  0.3034087E+03  0.7957747E-01  0.3871980E+00
         13   -1    0    0    0    0  0.00000000000E+00  0.00000000000E+00  0.14999999963E+04  0.15000000000E+04  0.10566000000E+00 0.  1.
        994   -1    0    0    0    0 -0.00000000000E+00 -0.00000000000E+00  0.11368683772E-12  0.17120000000E+03  0.17120000000E+03 0.  0.
         13    1    1    2    0    0 -0.19409786015E+03 -0.96031158012E+02  0.67107458421E+03  0.70515038918E+03  0.10566000000E+00 0.  1.
        994    1    1    2    0    0  0.16750265736E+03  0.56792783577E+02  0.15608978823E+03  0.29147216416E+03  0.17120000000E+03 0.  0.
        998    1    1    2    0    0  0.26595202792E+02  0.39238374435E+02  0.67283562383E+03  0.67457744666E+03  0.10000000000E+02 0.  1.
</event>
<event>
 5    1  0.9130022E-009  0.2086371E+03  0.7957747E-01  0.4887174E+00
         13   -1    0    0    0    0  0.00000000000E+00  0.00000000000E+00  0.14999999963E+04  0.15000000000E+04  0.10566000000E+00 0. -1.
        994   -1    0    0    0    0 -0.00000000000E+00 -0.00000000000E+00  0.11368683772E-12  0.17120000000E+03  0.17120000000E+03 0.  0.
         13    1    1    2    0    0 -0.86591551486E+02  0.74141622393E+02  0.61000183356E+02  0.12929079818E+03  0.10566000000E+00 0. -1.
        994    1    1    2    0    0  0.91315412780E+02 -0.75342132048E+02  0.15916612955E+03  0.26202717086E+03  0.17120000000E+03 0.  0.
        998    1    1    2    0    0 -0.47238612944E+01  0.12005096544E+01  0.12798336834E+04  0.12798820310E+04  0.10000000000E+02 0. -1.
</event>
<event>
 5    1  0.9130022E-009  0.3804985E+03  0.7957747E-01  0.3448991E+00
         13   -1    0    0    0    0  0.00000000000E+00  0.00000000000E+00  0.14999999963E+04  0.15000000000E+04  0.10566000000E+00 0.  1.
        994   -1    0    0    0    0 -0.00000000000E+00 -0.00000000000E+00  0.11368683772E-12  0.17120000000E+03  0.17120000000E+03 0.  0.
         13    1    1    2    0    0  0.13414816546E+02 -0.30719067838E+02  0.16341355928E+03  0.16681612918E+03  0.10566000000E+00 0.  1.
        994    1    1    2    0    0 -0.19723472893E+02 -0.69287665357E+01  0.53416161527E+01  0.17255432783E+03  0.17120000000E+03 0.  0.
        998    1    1    2    0    0  0.63086563474E+01  0.37647834374E+02  0.13312448208E+04  0.13318295430E+04  0.10000000000E+02 0.  1.
</event>
<event>
 5    1  0.9130022E-009  0.4144208E+03  0.7957747E-01  0.3313738E+00
         13   -1    0    0    0    0  0.00000000000E+00  0.00000000000E+00  0.14999999963E+04  0.15000000000E+04  0.10566000000E+00 0.  1.
        994   -1    0    0    0    0 -0.00000000000E+00 -0.00000000000E+00  0.11368683772E-12  0.17120000000E+03  0.17120000000E+03 0.  0.
         13    1    1    2    0    0  0.30514870556E+02  0.89338372639E+02  0.10009034965E+03  0.13758848574E+03  0.10566000000E+00 0.  1.
        994    1    1    2    0    0 -0.44764677511E+02 -0.94204611746E+02  0.83639701146E+02  0.21721745978E+03  0.17120000000E+03 0.  0.
        998    1    1    2    0    0  0.14249806955E+02  0.48662391071E+01  0.13162699455E+04  0.13163940545E+04  0.10000000000E+02 0.  1.
</event>
<event>
 5    1  0.9130022E-009  0.3744050E+03  0.7957747E-01  0.3475888E+00
         13   -1    0    0    0    0  0.00000000000E+00  0.00000000000E+00  0.14999999963E+04  0.15000000000E+04  0.10566000000E+00 0.  1.
        994   -1    0    0    0    0 -0.00000000000E+00 -0.00000000000E+00  0.11368683772E-12  0.17120000000E+03  0.17120000000E+03 0.  0.
         13    1    1    2    0    0 -0.15015374450E+02  0.90901540659E+00  0.13269490961E+02  0.20059370212E+02  0.10566000000E+00 0.  1.
        994    1    1    2    0    0  0.59802631874E+01  0.56470482788E+01  0.72150447665E+01  0.17154926282E+03  0.17120000000E+03 0.  0.
        998    1    1    2    0    0  0.90351112630E+01 -0.65560636854E+01  0.14795154606E+04  0.14795913670E+04  0.10000000000E+02 0.  1.
</event>
<event>
 5    1  0.9130022E-009  0.3842697E+03  0.7957747E-01  0.3432775E+00
         13   -1    0    0    0    0  0.00000000000E+00  0.00000000000E+00  0.14999999963E+04  0.15000000000E+04  0.10566000000E+00 0. -1.
        994   -1    0    0    0    0 -0.00000000000E+00 -0.00000000000E+00  0.11368683772E-12  0.17120000000E+03  0.17120000000E+03 0.  0.
         13    1    1    2    0    0  0.96395263720E+01 -0.98643538018E+01  0.46731648339E+02  0.48724573524E+02  0.10566000000E+00 0. -1.
        994    1    1    2    0    0 -0.14510188710E+02  0.24202114656E+01  0.27068430167E+01  0.17185217485E+03  0.17120000000E+03 0.  0.
        998    1    1    2    0    0  0.48706623379E+01  0.74441423362E+01  0.14505615049E+04  0.14506232516E+04  0.10000000000E+02 0. -1.
</event>
<event>
 5    1  0.9130022E-009  0.3775728E+03  0.7957747E-01  0.3461796E+00
         13   -1    0    0    0    0  0.00000000000E+00  0.00000000000E+00  0.14999999963E+04  0.15000000000E+04  0.10566000000E+00 0. -1.
        994   -1    0    0    0    0 -0.00000000000E+00 -0.00000000000E+00  0.11368683772E-12  0.17120000000E+03  0.17120000000E+03 0.  0.
         13    1    1    2    0    0 -0.42210364293E+01 -0.21450238171E+02  0.41449938144E+02  0.46861907797E+02  0.10566000000E+00 0. -1.
        994    1    1    2    0    0  0.15146622775E+01  0.22104912243E+02  0.70195529900E+01  0.17277047048E+03  0.17120000000E+03 0.  0.
        998    1    1    2    0    0  0.27063741517E+01 -0.65467407229E+00  0.14515305051E+04  0.14515676217E+04  0.10000000000E+02 0. -1.
</event>
<event>
 5    1  0.9130022E-009  0.3754993E+03  0.7957747E-01  0.3470993E+00
         13   -1    0    0    0    0  0.00000000000E+00  0.00000000000E+00  0.14999999963E+04  0.15000000000E+04  0.10566000000E+00 0.  1.
        994   -1    0    0    0    0 -0.00000000000E+00 -0.00000000000E+00  0.11368683772E-12  0.17120000000E+03  0.17120000000E+03 0.  0.
         13    1    1    2    0    0 -0.58505370377E+01 -0.49224553963E+02  0.16124212866E+03  0.16869001368E+03  0.10566000000E+00 0.  1.
        994    1    1    2    0    0  0.10175495644E+02  0.58144283370E+02  0.18339663542E+02  0.18201670709E+03  0.17120000000E+03 0.  0.
        998    1    1    2    0    0 -0.43249586063E+01 -0.89197294062E+01  0.13204182041E+04  0.13204932792E+04  0.10000000000E+02 0.  1.
</event>
<event>
 5    1  0.9130022E-009  0.3777014E+03  0.7957747E-01  0.3461228E+00
         13   -1    0    0    0    0  0.00000000000E+00  0.00000000000E+00  0.14999999963E+04  0.15000000000E+04  0.10566000000E+00 0.  1.
        994   -1    0    0    0    0 -0.00000000000E+00 -0.00000000000E+00  0.11368683772E-12  0.17120000000E+03  0.17120000000E+03 0.  0.
         13    1    1    2    0    0  0.91918997168E+02 -0.68636909047E+02  0.59829816596E+03  0.60919687613E+03  0.10566000000E+00 0.  1.
        994    1    1    2    0    0 -0.10850954669E+03  0.68528447550E+02  0.62954036095E+02  0.22303165808E+03  0.17120000000E+03 0.  0.
        998    1    1    2    0    0  0.16590549526E+02  0.10846149632E+00  0.83874779422E+03  0.83897146579E+03  0.10000000000E+02 0. -1.
</event>
<event>
 5    1  0.9130022E-009  0.3786412E+03  0.7957747E-01  0.3457097E+00
         13   -1    0    0    0    0  0.00000000000E+00  0.00000000000E+00  0.14999999963E+04  0.15000000000E+04  0.10566000000E+00 0. -1.
        994   -1    0    0    0    0 -0.00000000000E+00 -0.00000000000E+00  0.11368683772E-12  0.17120000000E+03  0.17120000000E+03 0.  0.
         13    1    1    2    0    0  0.34732242532E+02 -0.20617979645E+02  0.21476620000E+03  0.21853137437E+03  0.10566000000E+00 0. -1.
        994    1    1    2    0    0  0.55193773364E+01 -0.96932800970E+01  0.52385657384E+01  0.17164296017E+03  0.17120000000E+03 0.  0.
        998    1    1    2    0    0 -0.40251619868E+02  0.30311259742E+02  0.12799952305E+04  0.12810256655E+04  0.10000000000E+02 0. -1.
</event>
<event>
 5    1  0.9130022E-009  0.3736948E+03  0.7957747E-01  0.3479081E+00
         13   -1    0    0    0    0  0.00000000000E+00  0.00000000000E+00  0.14999999963E+04  0.15000000000E+04  0.10566000000E+00 0.  1.
        994   -1    0    0    0    0 -0.00000000000E+00 -0.00000000000E+00  0.11368683772E-12  0.17120000000E+03  0.17120000000E+03 0.  0.
         13    1    1    2    0    0  0.43580498377E+02  0.19736556318E+02  0.85082583318E+02  0.97610699425E+02  0.10566000000E+00 0.  1.
        994    1    1    2    0    0 -0.32029749680E+02  0.30176402629E+01  0.16580586428E+02  0.17498390458E+03  0.17120000000E+03 0.  0.
        998    1    1    2    0    0 -0.11550748697E+02 -0.22754196581E+02  0.13983368265E+04  0.13986053960E+04  0.10000000000E+02 0.  1.
</event>
<event>
 5    1  0.9130022E-009  0.3833915E+03  0.7957747E-01  0.3436523E+00
         13   -1    0    0    0    0  0.00000000000E+00  0.00000000000E+00  0.14999999963E+04  0.15000000000E+04  0.10566000000E+00 0.  1.
        994   -1    0    0    0    0 -0.00000000000E+00 -0.00000000000E+00  0.11368683772E-12  0.17120000000E+03  0.17120000000E+03 0.  0.
         13    1    1    2    0    0 -0.11431934307E+02 -0.14374522807E+02  0.65857315822E+02  0.68370412016E+02  0.10566000000E+00 0.  1.
        994    1    1    2    0    0  0.11044145096E+02  0.16757574379E+02  0.37635232818E+01  0.17241343784E+03  0.17120000000E+03 0.  0.
        998    1    1    2    0    0  0.38778921168E+00 -0.23830515728E+01  0.14303791572E+04  0.14304161501E+04  0.10000000000E+02 0.  1.
</event>
<event>
 5    1  0.9130022E-009  0.3833628E+03  0.7957747E-01  0.3436646E+00
         13   -1    0    0    0    0  0.00000000000E+00  0.00000000000E+00  0.14999999963E+04  0.15000000000E+04  0.10566000000E+00 0. -1.
        994   -1    0    0    0    0 -0.00000000000E+00 -0.00000000000E+00  0.11368683772E-12  0.17120000000E+03  0.17120000000E+03 0.  0.
         13    1    1    2    0    0 -0.15338960069E+02 -0.16463200974E+01  0.47250706725E+02  0.49705477725E+02  0.10566000000E+00 0. -1.
        994    1    1    2    0    0  0.13401888191E+02  0.26037491607E+01  0.30616560483E+01  0.17177078871E+03  0.17120000000E+03 0.  0.
        998    1    1    2    0    0  0.19370718787E+01 -0.95742906331E+00  0.14496876335E+04  0.14497237336E+04  0.10000000000E+02 0. -1.
</event>
<event>
 5    1  0.9130022E-009  0.3745455E+03  0.7957747E-01  0.3475258E+00
         13   -1    0    0    0    0  0.00000000000E+00  0.00000000000E+00  0.14999999963E+04  0.15000000000E+04  0.10566000000E+00 0.  1.
        994   -1    0    0    0    0 -0.00000000000E+00 -0.00000000000E+00  0.11368683772E-12  0.17120000000E+03  0.17120000000E+03 0.  0.
         13    1    1    2    0    0 -0.12178627221E+02  0.85245736199E+01  0.12742920307E+02  0.19580104657E+02  0.10566000000E+00 0.  1.
        994    1    1    2    0    0  0.14456969975E+02 -0.87971728183E+01  0.78878940196E+01  0.17221513610E+03  0.17120000000E+03 0.  0.
        998    1    1    2    0    0 -0.22783427534E+01  0.27259919843E+00  0.14793691820E+04  0.14794047592E+04  0.10000000000E+02 0.  1.
</event>
<event>
 5    1  0.9130022E-009  0.3842379E+03  0.7957747E-01  0.3432911E+00
         13   -1    0    0    0    0  0.00000000000E+00  0.00000000000E+00  0.14999999963E+04  0.15000000000E+04  0.10566000000E+00 0.  1.
        994   -1    0    0    0    0 -0.00000000000E+00 -0.00000000000E+00  0.11368683772E-12  0.17120000000E+03  0.17120000000E+03 0.  0.
         13    1    1    2    0    0 -0.13718853648E+01 -0.11602417071E+02  0.33124801405E+02  0.35124945316E+02  0.10566000000E+00 0.  1.
        994    1    1    2    0    0  0.72716256544E+01  0.97700736003E+01  0.24981568922E+01  0.17165084231E+03  0.17120000000E+03 0.  0.
        998    1    1    2    0    0 -0.58997402896E+01  0.18323434711E+01  0.14643770380E+04  0.14644242124E+04  0.10000000000E+02 0.  1.
</event>
<event>
 5    1  0.9130022E-009  0.3802625E+03  0.7957747E-01  0.3450016E+00
         13   -1    0    0    0    0  0.00000000000E+00  0.00000000000E+00  0.14999999963E+04  0.15000000000E+04  0.10566000000E+00 0. -1.
        994   -1    0    0    0    0 -0.00000000000E+00 -0.00000000000E+00  0.11368683772E-12  0.17120000000E+03  0.17120000000E+03 0.  0.
         13    1    1    2    0    0 -0.12838739318E+02  0.38423661063E+02  0.23548443746E+03  0.23894380596E+03  0.10566000000E+00 0. -1.
        994    1    1    2    0    0 -0.24735928794E+01 -0.73659714290E+01  0.42023844917E+01  0.17142775806E+03  0.17120000000E+03 0.  0.
        998    1    1    2    0    0  0.15312332197E+02 -0.31057689634E+02  0.12603131743E+04  0.12608284360E+04  0.10000000000E+02 0. -1.
</event>
<event>
 5    1  0.9130022E-009  0.3710409E+03  0.7957747E-01  0.3491121E+00
         13   -1    0    0    0    0  0.00000000000E+00  0.00000000000E+00  0.14999999963E+04  0.15000000000E+04  0.10566000000E+00 0. -1.
        994   -1    0    0    0    0 -0.00000000000E+00 -0.00000000000E+00  0.11368683772E-12  0.17120000000E+03  0.17120000000E+03 0.  0.
         13    1    1    2    0    0 -0.40320509545E+02  0.44379271352E+02  0.21176063900E+03  0.22008598912E+03  0.10566000000E+00 0. -1.
        994    1    1    2    0    0  0.13001299143E+02 -0.25586836809E+02  0.11569188356E+02  0.17397415359E+03  0.17120000000E+03 0.  0.
        998    1    1    2    0    0  0.27319210401E+02 -0.18792434544E+02  0.12766701689E+04  0.12771398573E+04  0.10000000000E+02 0. -1.
</event>
<event>
 5    1  0.9130022E-009  0.3713055E+03  0.7957747E-01  0.3489913E+00
         13   -1    0    0    0    0  0.00000000000E+00  0.00000000000E+00  0.14999999963E+04  0.15000000000E+04  0.10566000000E+00 0.  1.
        994   -1    0    0    0    0 -0.00000000000E+00 -0.00000000000E+00  0.11368683772E-12  0.17120000000E+03  0.17120000000E+03 0.  0.
         13    1    1    2    0    0 -0.26235115479E+02  0.42845185410E+01  0.39415198375E+02  0.47541638700E+02  0.10566000000E+00 0.  1.
        994    1    1    2    0    0  0.30614856347E+01  0.83962915443E+01  0.88632696161E+01  0.17166207489E+03  0.17120000000E+03 0.  0.
        998    1    1    2    0    0  0.23173629845E+02 -0.12680810085E+02  0.14517215283E+04  0.14519962864E+04  0.10000000000E+02 0.  1.
</event>
<event>
 5    1  0.9130022E-009  0.3840240E+03  0.7957747E-01  0.3433822E+00
         13   -1    0    0    0    0  0.00000000000E+00  0.00000000000E+00  0.14999999963E+04  0.15000000000E+04  0.10566000000E+00 0. -1.
        994   -1    0    0    0    0 -0.00000000000E+00 -0.00000000000E+00  0.11368683772E-12  0.17120000000E+03  0.17120000000E+03 0.  0.
         13    1    1    2    0    0  0.85138157016E+01  0.19736247387E+02  0.44064817172E+01  0.21941576148E+02  0.10566000000E+00 0. -1.
        994    1    1    2    0    0 -0.14318248872E+02 -0.60243588916E+01  0.19443457321E+02  0.17299940226E+03  0.17120000000E+03 0.  0.
        998    1    1    2    0    0  0.58044331702E+01 -0.13711888495E+02  0.14761500572E+04  0.14762590216E+04  0.10000000000E+02 0. -1.
</event>
<event>
 5    1  0.9130022E-009  0.3771191E+03  0.7957747E-01  0.3463800E+00
         13   -1    0    0    0    0  0.00000000000E+00  0.00000000000E+00  0.14999999963E+04  0.15000000000E+04  0.10566000000E+00 0. -1.
        994   -1    0    0    0    0 -0.00000000000E+00 -0.00000000000E+00  0.11368683772E-12  0.17120000000E+03  0.17120000000E+03 0.  0.
         13    1    1    2    0    0 -0.90484557124E+01 -0.60652909544E+01  0.81478061089E+01  0.13603683823E+02  0.10566000000E+00 0. -1.
        994    1    1    2    0    0  0.55620875979E+01 -0.19404703329E+01  0.57116853837E+01  0.17139651570E+03  0.17120000000E+03 0.  0.
        998    1    1    2    0    0  0.34863681145E+01  0.80057612873E+01  0.14861405048E+04  0.14861998005E+04  0.10000000000E+02 0. -1.
</event>
<event>
 5    1  0.9130022E-009  0.3838372E+03  0.7957747E-01  0.3434619E+00
         13   -1    0    0    0    0  0.00000000000E+00  0.00000000000E+00  0.14999999963E+04  0.15000000000E+04  0.10566000000E+00 0. -1.
        994   -1    0    0    0    0 -0.00000000000E+00 -0.00000000000E+00  0.11368683772E-12  0.17120000000E+03  0.17120000000E+03 0.  0.
         13    1    1    2    0    0 -0.17342001547E+02 -0.36886357273E+01  0.73236124149E+02  0.75351788934E+02  0.10566000000E+00 0. -1.
        994    1    1    2    0    0  0.10309134612E+02 -0.20107192986E+02  0.38958128642E+01  0.17272867401E+03  0.17120000000E+03 0.  0.
        998    1    1    2    0    0  0.70328669354E+01  0.23795828713E+02  0.14228680593E+04  0.14231195371E+04  0.10000000000E+02 0. -1.
</event>
<event>
 5    1  0.9130022E-009  0.3785416E+03  0.7957747E-01  0.3457533E+00
         13   -1    0    0    0    0  0.00000000000E+00  0.00000000000E+00  0.14999999963E+04  0.15000000000E+04  0.10566000000E+00 0. -1.
        994   -1    0    0    0    0 -0.00000000000E+00 -0.00000000000E+00  0.11368683772E-12  0.17120000000E+03  0.17120000000E+03 0.  0.
         13    1    1    2    0    0  0.15615950098E+02 -0.13219232195E+02  0.41302433379E+02  0.46092387271E+02  0.10566000000E+00 0. -1.
        994    1    1    2    0    0 -0.98878143754E+01  0.66204724642E+01  0.53469498605E+01  0.17169632903E+03  0.17120000000E+03 0.  0.
        998    1    1    2    0    0 -0.57281357226E+01  0.65987597305E+01  0.14533506130E+04  0.14534112837E+04  0.10000000000E+02 0. -1.
</event>
<event>
 5    1  0.9130022E-009  0.3854129E+03  0.7957747E-01  0.3427923E+00
         13   -1    0    0    0    0  0.00000000000E+00  0.00000000000E+00  0.14999999963E+04  0.15000000000E+04  0.10566000000E+00 0. -1.
        994   -1    0    0    0    0 -0.00000000000E+00 -0.00000000000E+00  0.11368683772E-12  0.17120000000E+03  0.17120000000E+03 0.  0.
         13    1    1    2    0    0  0.14953068983E+02 -0.51254210040E+01  0.87110961479E+02  0.88533581122E+02  0.10566000000E+00 0. -1.
        994    1    1    2    0    0 -0.87792688029E+01  0.10322976813E+02  0.20286094138E+01  0.17174747354E+03  0.17120000000E+03 0.  0.
        998    1    1    2    0    0 -0.61738001803E+01 -0.51975558090E+01  0.14108604254E+04  0.14109189453E+04  0.10000000000E+02 0. -1.
</event>
<event>
 5    1  0.9130022E-009  0.3838632E+03  0.7957747E-01  0.3434508E+00
         13   -1    0    0    0    0  0.00000000000E+00  0.00000000000E+00  0.14999999963E+04  0.15000000000E+04  0.10566000000E+00 0.  1.
        994   -1    0    0    0    0 -0.00000000000E+00 -0.00000000000E+00  0.11368683772E-12  0.17120000000E+03  0.17120000000E+03 0.  0.
         13    1    1    2    0    0 -0.21457844885E+02  0.83281263696E+01  0.13182104584E+03  0.13381553006E+03  0.10566000000E+00 0.  1.
        994    1    1    2    0    0  0.89177595098E+01  0.14498814067E+02  0.31525548447E+01  0.17207300964E+03  0.17120000000E+03 0.  0.
        998    1    1    2    0    0  0.12540085375E+02 -0.22826940437E+02  0.13650263956E+04  0.13653114603E+04  0.10000000000E+02 0.  1.
</event>
<event>
 5    1  0.9130022E-009  0.3813867E+03  0.7957747E-01  0.3445143E+00
         13   -1    0    0    0    0  0.00000000000E+00  0.00000000000E+00  0.14999999963E+04  0.15000000000E+04  0.10566000000E+00 0. -1.
        994   -1    0    0    0    0 -0.00000000000E+00 -0.00000000000E+00  0.11368683772E-12  0.17120000000E+03  0.17120000000E+03 0.  0.
         13    1    1    2    0    0  0.68533081910E+01  0.32174232182E+02  0.16975858730E+03  0.17291656420E+03  0.10566000000E+00 0. -1.
        994    1    1    2    0    0  0.20413566873E+01 -0.89360519522E+01  0.37144455195E+01  0.17148544331E+03  0.17120000000E+03 0.  0.
        998    1    1    2    0    0 -0.88946648783E+01 -0.23238180230E+02  0.13265269635E+04  0.13267979925E+04  0.10000000000E+02 0. -1.
</event>
<event>
 5    1  0.9130022E-009  0.3770256E+03  0.7957747E-01  0.3464213E+00
         13   -1    0    0    0    0  0.00000000000E+00  0.00000000000E+00  0.14999999963E+04  0.15000000000E+04  0.10566000000E+00 0.  1.
        994   -1    0    0    0    0 -0.00000000000E+00 -0.00000000000E+00  0.11368683772E-12  0.17120000000E+03  0.17120000000E+03 0.  0.
         13    1    1    2    0    0 -0.17800048259E+01  0.11320314171E+02  0.90895085871E+01  0.14626970312E+02  0.10566000000E+00 0.  1.
        994    1    1    2    0    0  0.44525860324E+01 -0.78727267079E+01  0.59184130253E+01  0.17154087840E+03  0.17120000000E+03 0.  0.
        998    1    1    2    0    0 -0.26725812065E+01 -0.34475874631E+01  0.14849920747E+04  0.14850321513E+04  0.10000000000E+02 0.  1.
</event>
<event>
 5    1  0.9130022E-009  0.3802913E+03  0.7957747E-01  0.3449891E+00
         13   -1    0    0    0    0  0.00000000000E+00  0.00000000000E+00  0.14999999963E+04  0.15000000000E+04  0.10566000000E+00 0. -1.
        994   -1    0    0    0    0 -0.00000000000E+00 -0.00000000000E+00  0.11368683772E-12  0.17120000000E+03  0.17120000000E+03 0.  0.
         13    1    1    2    0    0  0.19135563447E+02  0.73246938554E+01  0.50326415796E+02  0.54337650110E+02  0.10566000000E+00 0. -1.
        994    1    1    2    0    0 -0.61235211284E+01 -0.34458895930E+02  0.80878525059E+01  0.17492788908E+03  0.17120000000E+03 0.  0.
        998    1    1    2    0    0 -0.13012042319E+02  0.27134202074E+02  0.14415857280E+04  0.14419344608E+04  0.10000000000E+02 0. -1.
</event>
<event>
 5    1  0.9130022E-009  0.3847501E+03  0.7957747E-01  0.3430733E+00
         13   -1    0    0    0    0  0.00000000000E+00  0.00000000000E+00  0.14999999963E+04  0.15000000000E+04  0.10566000000E+00 0. -1.
        994   -1    0    0    0    0 -0.00000000000E+00 -0.00000000000E+00  0.11368683772E-12  0.17120000000E+03  0.17120000000E+03 0.  0.
         13    1    1    2    0    0  0.28536388299E+01  0.15251675804E+02  0.66736367014E+02  0.68516499587E+02  0.10566000000E+00 0. -1.
        994    1    1    2    0    0 -0.23737627747E+01 -0.14234133895E+02  0.24399571427E+01  0.17182444153E+03  0.17120000000E+03 0.  0.
        998    1    1    2    0    0 -0.47987605519E+00 -0.10175419093E+01  0.14308236721E+04  0.14308590589E+04  0.10000000000E+02 0.  0.
</event>
<event>
 5    1  0.9369638E-009  0.3852208E+03  0.7957747E-01  0.3428736E+00
         13   -1    0    0    0    0  0.00000000000E+00  0.00000000000E+00  0.14999999963E+04  0.15000000000E+04  0.10566000000E+00 0. -1.
        994   -1    0    0    0    0 -0.00000000000E+00 -0.00000000000E+00  0.11368683772E-12  0.17120000000E+03  0.17120000000E+03 0.  0.
         13    1    1    2    0    0 -0.24200007922E+01  0.12530192214E+02  0.52289057952E+02  0.53823961822E+02  0.10566000000E+00 0. -1.
        994    1    1    2    0    0 -0.15153348335E+01 -0.13407938887E+02  0.21191051339E+01  0.17174399457E+03  0.17120000000E+03 0.  0.
        998    1    1    2    0    0  0.39353356257E+01  0.87774667322E+00  0.14455918332E+04  0.14456320436E+04  0.10000000000E+02 0. -1.
</event>
<event>
 5    1  0.9130022E-009  0.3737844E+03  0.7957747E-01  0.3478677E+00
         13   -1    0    0    0    0  0.00000000000E+00  0.00000000000E+00  0.14999999963E+04  0.15000000000E+04  0.10566000000E+00 0. -1.
        994   -1    0    0    0    0 -0.00000000000E+00 -0.00000000000E+00  0.11368683772E-12  0.17120000000E+03  0.17120000000E+03 0.  0.
         13    1    1    2    0    0  0.11354086569E+02 -0.25815570566E+02  0.25043209112E+02  0.37716474545E+02  0.10566000000E+00 0. -1.
        994    1    1    2    0    0 -0.17019757525E+02  0.20790978953E+02  0.15516029135E+02  0.17398886203E+03  0.17120000000E+03 0.  0.
        998    1    1    2    0    0  0.56656709563E+01  0.50245916124E+01  0.14594407580E+04  0.14594946634E+04  0.10000000000E+02 0. -1.
</event>
<event>
 5    1  0.9130022E-009  0.3763882E+03  0.7957747E-01  0.3467037E+00
         13   -1    0    0    0    0  0.00000000000E+00  0.00000000000E+00  0.14999999963E+04  0.15000000000E+04  0.10566000000E+00 0.  1.
        994   -1    0    0    0    0 -0.00000000000E+00 -0.00000000000E+00  0.11368683772E-12  0.17120000000E+03  0.17120000000E+03 0.  0.
         13    1    1    2    0    0  0.64484233654E+02 -0.12210416546E+03  0.81068076497E+03  0.82235695258E+03  0.10566000000E+00 0.  1.
        994    1    1    2    0    0 -0.98137466500E+02  0.10075256861E+03  0.76132532832E+02  0.23428112380E+03  0.17120000000E+03 0.  0.
        998    1    1    2    0    0  0.33653232846E+02  0.21351596858E+02  0.61318669848E+03  0.61456192362E+03  0.10000000000E+02 0.  1.
</event>
<event>
 5    1  0.9130022E-009  0.3823014E+03  0.7957747E-01  0.3441198E+00
         13   -1    0    0    0    0  0.00000000000E+00  0.00000000000E+00  0.14999999963E+04  0.15000000000E+04  0.10566000000E+00 0.  1.
        994   -1    0    0    0    0 -0.00000000000E+00 -0.00000000000E+00  0.11368683772E-12  0.17120000000E+03  0.17120000000E+03 0.  0.
         13    1    1    2    0    0  0.79636232466E+01  0.26200090763E+02  0.13067684240E+03  0.13351521394E+03  0.10566000000E+00 0.  1.
        994    1    1    2    0    0  0.12091927786E+02 -0.14562714604E+02  0.41654761234E+01  0.17229358249E+03  0.17120000000E+03 0.  0.
        998    1    1    2    0    0 -0.20055551032E+02 -0.11637376159E+02  0.13651576778E+04  0.13653912036E+04  0.10000000000E+02 0.  1.
</event>
<event>
 5    1  0.9130022E-009  0.3858563E+03  0.7957747E-01  0.3426049E+00
         13   -1    0    0    0    0  0.00000000000E+00  0.00000000000E+00  0.14999999963E+04  0.15000000000E+04  0.10566000000E+00 0.  1.
        994   -1    0    0    0    0 -0.00000000000E+00 -0.00000000000E+00  0.11368683772E-12  0.17120000000E+03  0.17120000000E+03 0.  0.
         13    1    1    2    0    0 -0.11888692059E+02 -0.63179940671E+01  0.66397805723E+02  0.67749079823E+02  0.10566000000E+00 0.  1.
        994    1    1    2    0    0  0.22359215030E+02  0.16407516806E+02  0.37320953727E+01  0.17347192753E+03  0.17120000000E+03 0.  0.
        998    1    1    2    0    0 -0.10470522971E+02 -0.10089522739E+02  0.14298700952E+04  0.14299789926E+04  0.10000000000E+02 0.  1.
</event>
<event>
 5    1  0.9130022E-009  0.3856147E+03  0.7957747E-01  0.3427069E+00
         13   -1    0    0    0    0  0.00000000000E+00  0.00000000000E+00  0.14999999963E+04  0.15000000000E+04  0.10566000000E+00 0.  1.
        994   -1    0    0    0    0 -0.00000000000E+00 -0.00000000000E+00  0.11368683772E-12  0.17120000000E+03  0.17120000000E+03 0.  0.
         13    1    1    2    0    0 -0.30987474565E+01  0.12942368141E+02  0.76936588312E+02  0.78079170807E+02  0.10566000000E+00 0.  1.
        994    1    1    2    0    0  0.69384965719E+01  0.10194130132E+02  0.18244797157E+01  0.17165323111E+03  0.17120000000E+03 0.  0.
        998    1    1    2    0    0 -0.38397491154E+01 -0.23136498273E+02  0.14212389283E+04  0.14214675981E+04  0.10000000000E+02 0.  1.
</event>
<event>
 5    1  0.9130022E-009  0.3479976E+03  0.7957747E-01  0.3603553E+00
         13   -1    0    0    0    0  0.00000000000E+00  0.00000000000E+00  0.14999999963E+04  0.15000000000E+04  0.10566000000E+00 0.  1.
        994   -1    0    0    0    0 -0.00000000000E+00 -0.00000000000E+00  0.11368683772E-12  0.17120000000E+03  0.17120000000E+03 0.  0.
         13    1    1    2    0    0  0.62400635871E+02  0.26767505237E+03  0.74888926740E+03  0.79773361407E+03  0.10566000000E+00 0.  1.
        994    1    1    2    0    0 -0.77889830942E+02 -0.28142917423E+03  0.41041658213E+03  0.53199663228E+03  0.17120000000E+03 0.  0.
        998    1    1    2    0    0  0.15489195071E+02  0.13754121862E+02  0.34069414674E+03  0.34146975365E+03  0.10000000000E+02 0. -1.
</event>
<event>
 5    1  0.9130022E-009  0.3845394E+03  0.7957747E-01  0.3431628E+00
         13   -1    0    0    0    0  0.00000000000E+00  0.00000000000E+00  0.14999999963E+04  0.15000000000E+04  0.10566000000E+00 0. -1.
        994   -1    0    0    0    0 -0.00000000000E+00 -0.00000000000E+00  0.11368683772E-12  0.17120000000E+03  0.17120000000E+03 0.  0.
         13    1    1    2    0    0 -0.99430866735E+01 -0.10322221219E+02  0.59334831648E+02  0.61041351838E+02  0.10566000000E+00 0. -1.
        994    1    1    2    0    0  0.26082697933E+01 -0.74731956382E+01  0.20653509392E+01  0.17139532490E+03  0.17120000000E+03 0.  0.
        998    1    1    2    0    0  0.73348168801E+01  0.17795416857E+02  0.14385998137E+04  0.14387633233E+04  0.10000000000E+02 0. -1.
</event>
<event>
 5    1  0.9130022E-009  0.3856950E+03  0.7957747E-01  0.3426730E+00
         13   -1    0    0    0    0  0.00000000000E+00  0.00000000000E+00  0.14999999963E+04  0.15000000000E+04  0.10566000000E+00 0. -1.
        994   -1    0    0    0    0 -0.00000000000E+00 -0.00000000000E+00  0.11368683772E-12  0.17120000000E+03  0.17120000000E+03 0.  0.
         13    1    1    2    0    0 -0.84592669316E+01 -0.10459718934E+02  0.70640483242E+02  0.71910040703E+02  0.10566000000E+00 0. -1.
        994    1    1    2    0    0  0.10313514349E+02  0.38067946787E+01  0.16821435065E+01  0.17156086346E+03  0.17120000000E+03 0.  0.
        998    1    1    2    0    0 -0.18542474178E+01  0.66529242555E+01  0.14276773695E+04  0.14277290958E+04  0.10000000000E+02 0. -1.
</event>
<event>
 5    1  0.9130022E-009  0.3802180E+03  0.7957747E-01  0.3450210E+00
         13   -1    0    0    0    0  0.00000000000E+00  0.00000000000E+00  0.14999999963E+04  0.15000000000E+04  0.10566000000E+00 0.  1.
        994   -1    0    0    0    0 -0.00000000000E+00 -0.00000000000E+00  0.11368683772E-12  0.17120000000E+03  0.17120000000E+03 0.  0.
         13    1    1    2    0    0  0.36014012903E+02  0.31057805315E+01  0.17935635184E+03  0.18296274787E+03  0.10566000000E+00 0.  1.
        994    1    1    2    0    0 -0.50346085041E+01 -0.16016959294E+02  0.49653437970E+01  0.17209295426E+03  0.17120000000E+03 0.  0.
        998    1    1    2    0    0 -0.30979404399E+02  0.12911178763E+02  0.13156783006E+04  0.13161442979E+04  0.10000000000E+02 0.  1.
</event>
<event>
 5    1  0.9130022E-009  0.3686364E+03  0.7957747E-01  0.3502181E+00
         13   -1    0    0    0    0  0.00000000000E+00  0.00000000000E+00  0.14999999963E+04  0.15000000000E+04  0.10566000000E+00 0.  1.
        994   -1    0    0    0    0 -0.00000000000E+00 -0.00000000000E+00  0.11368683772E-12  0.17120000000E+03  0.17120000000E+03 0.  0.
         13    1    1    2    0    0 -0.28873576609E+02  0.38812255139E+02  0.10518461462E+03  0.11577516527E+03  0.10566000000E+00 0.  1.
        994    1    1    2    0    0  0.38337141741E+02 -0.35247610554E+02  0.19465388024E+02  0.18000131060E+03  0.17120000000E+03 0.  0.
        998    1    1    2    0    0 -0.94635651316E+01 -0.35646445853E+01  0.13753499936E+04  0.13754235241E+04  0.10000000000E+02 0.  1.
</event>
<event>
 5    1  0.9130022E-009  0.3817513E+03  0.7957747E-01  0.3443568E+00
         13   -1    0    0    0    0  0.00000000000E+00  0.00000000000E+00  0.14999999963E+04  0.15000000000E+04  0.10566000000E+00 0. -1.
        994   -1    0    0    0    0 -0.00000000000E+00 -0.00000000000E+00  0.11368683772E-12  0.17120000000E+03  0.17120000000E+03 0.  0.
         13    1    1    2    0    0  0.72463452290E+01 -0.81582416346E+01  0.16933515457E+02  0.20145012671E+02  0.10566000000E+00 0. -1.
        994    1    1    2    0    0 -0.60495354990E+01  0.63208394517E+01  0.35061875903E+01  0.17145927576E+03  0.17120000000E+03 0.  0.
        998    1    1    2    0    0 -0.11968097300E+01  0.18374021830E+01  0.14795602932E+04  0.14795957116E+04  0.10000000000E+02 0. -1.
</event>
<event>
 5    1  0.9130022E-009  0.3834651E+03  0.7957747E-01  0.3436208E+00
         13   -1    0    0    0    0  0.00000000000E+00  0.00000000000E+00  0.14999999963E+04  0.15000000000E+04  0.10566000000E+00 0. -1.
        994   -1    0    0    0    0 -0.00000000000E+00 -0.00000000000E+00  0.11368683772E-12  0.17120000000E+03  0.17120000000E+03 0.  0.
         13    1    1    2    0    0  0.92718674196E+01 -0.10939233641E+02  0.44102143005E+02  0.46375042207E+02  0.10566000000E+00 0. -1.
        994    1    1    2    0    0  0.84361158770E+01  0.73284707793E+01  0.28069589290E+01  0.17158727678E+03  0.17120000000E+03 0.  0.
        998    1    1    2    0    0 -0.17707983297E+02  0.36107628614E+01  0.14530908943E+04  0.14532376810E+04  0.10000000000E+02 0. -1.
</event>
<event>
 5    1  0.9130022E-009  0.3814617E+03  0.7957747E-01  0.3444818E+00
         13   -1    0    0    0    0  0.00000000000E+00  0.00000000000E+00  0.14999999963E+04  0.15000000000E+04  0.10566000000E+00 0.  1.
        994   -1    0    0    0    0 -0.00000000000E+00 -0.00000000000E+00  0.11368683772E-12  0.17120000000E+03  0.17120000000E+03 0.  0.
         13    1    1    2    0    0 -0.83627998397E+01 -0.55507099385E+02  0.31768891232E+03  0.32261002879E+03  0.10566000000E+00 0.  1.
        994    1    1    2    0    0  0.37775848373E+01  0.70199918404E+02  0.20017712846E+02  0.18615167880E+03  0.17120000000E+03 0.  0.
        998    1    1    2    0    0  0.45852150024E+01 -0.14692819019E+02  0.11622933711E+04  0.11624382924E+04  0.10000000000E+02 0.  1.
</event>
<event>
 5    1  0.9130022E-009  0.3807827E+03  0.7957747E-01  0.3447758E+00
         13   -1    0    0    0    0  0.00000000000E+00  0.00000000000E+00  0.14999999963E+04  0.15000000000E+04  0.10566000000E+00 0. -1.
        994   -1    0    0    0    0 -0.00000000000E+00 -0.00000000000E+00  0.11368683772E-12  0.17120000000E+03  0.17120000000E+03 0.  0.
         13    1    1    2    0    0 -0.82781948168E+01 -0.24744754245E+02  0.97695960739E+02  0.10112043948E+03  0.10566000000E+00 0. -1.
        994    1    1    2    0    0  0.92357093129E+01 -0.26742797581E+01  0.40469073335E+01  0.17151754300E+03  0.17120000000E+03 0.  0.
        998    1    1    2    0    0 -0.95751449608E+00  0.27419034003E+02  0.13982571282E+04  0.13985620175E+04  0.10000000000E+02 0. -1.
</event>
<event>
 5    1  0.9130022E-009  0.3732138E+03  0.7957747E-01  0.3481250E+00
         13   -1    0    0    0    0  0.00000000000E+00  0.00000000000E+00  0.14999999963E+04  0.15000000000E+04  0.10566000000E+00 0. -1.
        994   -1    0    0    0    0 -0.00000000000E+00 -0.00000000000E+00  0.11368683772E-12  0.17120000000E+03  0.17120000000E+03 0.  0.
         13    1    1    2    0    0  0.37962118884E+01 -0.16189080908E+02  0.15355653951E+02  0.22634152020E+02  0.10566000000E+00 0. -1.
        994    1    1    2    0    0  0.44746859057E+01 -0.11945538610E+01  0.76721942663E+01  0.17143439660E+03  0.17120000000E+03 0.  0.
        998    1    1    2    0    0 -0.82708977941E+01  0.17383634769E+02  0.14769721481E+04  0.14771314514E+04  0.10000000000E+02 0. -1.
</event>
<event>
 5    1  0.9130022E-009  0.3776333E+03  0.7957747E-01  0.3461529E+00
         13   -1    0    0    0    0  0.00000000000E+00  0.00000000000E+00  0.14999999963E+04  0.15000000000E+04  0.10566000000E+00 0. -1.
        994   -1    0    0    0    0 -0.00000000000E+00 -0.00000000000E+00  0.11368683772E-12  0.17120000000E+03  0.17120000000E+03 0.  0.
         13    1    1    2    0    0  0.61540860787E+02  0.56851044739E+01  0.33053123363E+03  0.33625958058E+03  0.10566000000E+00 0. -1.
        994    1    1    2    0    0 -0.46382255555E+02  0.17373822463E+02  0.13643053568E+02  0.17874209423E+03  0.17120000000E+03 0.  0.
        998    1    1    2    0    0 -0.15158605232E+02 -0.23058926937E+02  0.11558257091E+04  0.11561983252E+04  0.10000000000E+02 0. -1.
</event>
<event>
 5    1  0.9130022E-009  0.3779952E+03  0.7957747E-01  0.3459935E+00
         13   -1    0    0    0    0  0.00000000000E+00  0.00000000000E+00  0.14999999963E+04  0.15000000000E+04  0.10566000000E+00 0.  1.
        994   -1    0    0    0    0 -0.00000000000E+00 -0.00000000000E+00  0.11368683772E-12  0.17120000000E+03  0.17120000000E+03 0.  0.
         13    1    1    2    0    0 -0.67050927708E+02  0.10199635386E+02  0.38181286483E+03  0.38778980696E+03  0.10566000000E+00 0.  1.
        994    1    1    2    0    0  0.52916205947E+02 -0.15363830868E+02  0.15434917485E+02  0.18050996878E+03  0.17120000000E+03 0.  0.
        998    1    1    2    0    0  0.14134721761E+02  0.51641954814E+01  0.11027522140E+04  0.11029002243E+04  0.10000000000E+02 0.  1.
</event>
<event>
 5    1  0.9130022E-009  0.3830302E+03  0.7957747E-01  0.3438070E+00
         13   -1    0    0    0    0  0.00000000000E+00  0.00000000000E+00  0.14999999963E+04  0.15000000000E+04  0.10566000000E+00 0. -1.
        994   -1    0    0    0    0 -0.00000000000E+00 -0.00000000000E+00  0.11368683772E-12  0.17120000000E+03  0.17120000000E+03 0.  0.
         13    1    1    2    0    0 -0.16341172573E+02 -0.50356115331E+01  0.53873553262E+02  0.56522227572E+02  0.10566000000E+00 0. -1.
        994    1    1    2    0    0  0.16441353587E+02  0.26027183766E+01  0.35289423205E+01  0.17204355752E+03  0.17120000000E+03 0.  0.
        998    1    1    2    0    0 -0.10018101428E+00  0.24328931565E+01  0.14425975007E+04  0.14426342149E+04  0.10000000000E+02 0. -1.
</event>
<event>
 5    1  0.9130022E-009  0.3784533E+03  0.7957747E-01  0.3457921E+00
         13   -1    0    0    0    0  0.00000000000E+00  0.00000000000E+00  0.14999999963E+04  0.15000000000E+04  0.10566000000E+00 0. -1.
        994   -1    0    0    0    0 -0.00000000000E+00 -0.00000000000E+00  0.11368683772E-12  0.17120000000E+03  0.17120000000E+03 0.  0.
         13    1    1    2    0    0  0.46412561077E+02  0.16260392466E+02  0.29442902585E+03  0.29850793727E+03  0.10566000000E+00 0. -1.
        994    1    1    2    0    0 -0.53660181923E+01 -0.58598310904E+01  0.51280880022E+01  0.17146098407E+03  0.17120000000E+03 0.  0.
        998    1    1    2    0    0 -0.41046542885E+02 -0.10400561375E+02  0.12004428824E+04  0.12012310787E+04  0.10000000000E+02 0. -1.
</event>
<event>
 5    1  0.9130022E-009  0.3719090E+03  0.7957747E-01  0.3487163E+00
         13   -1    0    0    0    0  0.00000000000E+00  0.00000000000E+00  0.14999999963E+04  0.15000000000E+04  0.10566000000E+00 0.  1.
        994   -1    0    0    0    0 -0.00000000000E+00 -0.00000000000E+00  0.11368683772E-12  0.17120000000E+03  0.17120000000E+03 0.  0.
         13    1    1    2    0    0 -0.32132883884E+02  0.76750625853E+02  0.34789501470E+03  0.35770676987E+03  0.10566000000E+00 0.  1.
        994    1    1    2    0    0  0.56209958004E+02 -0.51621879744E+00  0.23157306340E+02  0.18167423234E+03  0.17120000000E+03 0.  0.
        998    1    1    2    0    0 -0.24077074119E+02 -0.76234407056E+02  0.11289476752E+04  0.11318189978E+04  0.10000000000E+02 0.  1.
</event>
<event>
 5    1  0.9130022E-009  0.3799151E+03  0.7957747E-01  0.3451528E+00
         13   -1    0    0    0    0  0.00000000000E+00  0.00000000000E+00  0.14999999963E+04  0.15000000000E+04  0.10566000000E+00 0. -1.
        994   -1    0    0    0    0 -0.00000000000E+00 -0.00000000000E+00  0.11368683772E-12  0.17120000000E+03  0.17120000000E+03 0.  0.
         13    1    1    2    0    0  0.48319330321E+01 -0.17043689975E+02  0.38526519598E+02  0.42404466995E+02  0.10566000000E+00 0. -1.
        994    1    1    2    0    0 -0.47304904574E+02 -0.22153323715E+02  0.13354330627E+02  0.17948900216E+03  0.17120000000E+03 0.  0.
        998    1    1    2    0    0  0.42472971542E+02  0.39197013690E+02  0.14481191461E+04  0.14493065308E+04  0.10000000000E+02 0. -1.
</event>
<event>
 5    1  0.1054566E-008  0.3840705E+03  0.7957747E-01  0.3433624E+00
         13   -1    0    0    0    0  0.00000000000E+00  0.00000000000E+00  0.14999999963E+04  0.15000000000E+04  0.10566000000E+00 0.  1.
        994   -1    0    0    0    0 -0.00000000000E+00 -0.00000000000E+00  0.11368683772E-12  0.17120000000E+03  0.17120000000E+03 0.  0.
         13    1    1    2    0    0 -0.27186119258E+01 -0.11617275576E+02  0.32918462713E+02  0.35014115640E+02  0.10566000000E+00 0.  1.
        994    1    1    2    0    0  0.52115971284E+01  0.11307044024E+02  0.26038121183E+01  0.17167186673E+03  0.17120000000E+03 0.  0.
        998    1    1    2    0    0 -0.24929852026E+01  0.31023155111E+00  0.14644777214E+04  0.14645140176E+04  0.10000000000E+02 0.  1.
</event>
<event>
 5    1  0.9130022E-009  0.3814261E+03  0.7957747E-01  0.3444972E+00
         13   -1    0    0    0    0  0.00000000000E+00  0.00000000000E+00  0.14999999963E+04  0.15000000000E+04  0.10566000000E+00 0.  1.
        994   -1    0    0    0    0 -0.00000000000E+00 -0.00000000000E+00  0.11368683772E-12  0.17120000000E+03  0.17120000000E+03 0.  0.
         13    1    1    2    0    0  0.16122604985E+02  0.10610460242E+02  0.54153641951E+02  0.57490419712E+02  0.10566000000E+00 0.  1.
        994    1    1    2    0    0 -0.68661033524E+01 -0.58944937912E+01  0.36875059948E+01  0.17147864629E+03  0.17120000000E+03 0.  0.
        998    1    1    2    0    0 -0.92565016328E+01 -0.47159664509E+01  0.14421588483E+04  0.14422309340E+04  0.10000000000E+02 0.  1.
</event>
<event>
 5    1  0.9130022E-009  0.3827251E+03  0.7957747E-01  0.3439378E+00
         13   -1    0    0    0    0  0.00000000000E+00  0.00000000000E+00  0.14999999963E+04  0.15000000000E+04  0.10566000000E+00 0. -1.
        994   -1    0    0    0    0 -0.00000000000E+00 -0.00000000000E+00  0.11368683772E-12  0.17120000000E+03  0.17120000000E+03 0.  0.
         13    1    1    2    0    0  0.28276445477E+02  0.39772413258E+02  0.57718182504E+02  0.75583079990E+02  0.10566000000E+00 0. -1.
        994    1    1    2    0    0 -0.31891280346E+02 -0.40359208533E+02  0.27580788335E+02  0.18087581198E+03  0.17120000000E+03 0.  0.
        998    1    1    2    0    0  0.36148348687E+01  0.58679527487E+00  0.14147010254E+04  0.14147411080E+04  0.10000000000E+02 0. -1.
</event>
<event>
 5    1  0.9130022E-009  0.3726591E+03  0.7957747E-01  0.3483759E+00
         13   -1    0    0    0    0  0.00000000000E+00  0.00000000000E+00  0.14999999963E+04  0.15000000000E+04  0.10566000000E+00 0.  1.
        994   -1    0    0    0    0 -0.00000000000E+00 -0.00000000000E+00  0.11368683772E-12  0.17120000000E+03  0.17120000000E+03 0.  0.
         13    1    1    2    0    0 -0.31802926125E+02 -0.12860017286E+02  0.75465079865E+02  0.82896294234E+02  0.10566000000E+00 0.  1.
        994    1    1    2    0    0  0.99902701228E+01 -0.51080905330E+01  0.83172260505E+01  0.17176878161E+03  0.17120000000E+03 0.  0.
        998    1    1    2    0    0  0.21812656002E+02  0.17968107819E+02  0.14162176904E+04  0.14165349242E+04  0.10000000000E+02 0.  1.
</event>
<event>
 5    1  0.9130022E-009  0.3797152E+03  0.7957747E-01  0.3452399E+00
         13   -1    0    0    0    0  0.00000000000E+00  0.00000000000E+00  0.14999999963E+04  0.15000000000E+04  0.10566000000E+00 0. -1.
        994   -1    0    0    0    0 -0.00000000000E+00 -0.00000000000E+00  0.11368683772E-12  0.17120000000E+03  0.17120000000E+03 0.  0.
         13    1    1    2    0    0  0.10190360301E+02 -0.77617870925E+01  0.17237815472E+02  0.21476550659E+02  0.10566000000E+00 0. -1.
        994    1    1    2    0    0 -0.97439545172E+01  0.69840914961E+01  0.47580120003E+01  0.17168517951E+03  0.17120000000E+03 0.  0.
        998    1    1    2    0    0 -0.44640578375E+00  0.77769559639E+00  0.14780041688E+04  0.14780382698E+04  0.10000000000E+02 0.  0.
</event>
<event>
 5    1  0.9130022E-009  0.3857631E+03  0.7957747E-01  0.3426442E+00
         13   -1    0    0    0    0  0.00000000000E+00  0.00000000000E+00  0.14999999963E+04  0.15000000000E+04  0.10566000000E+00 0.  1.
        994   -1    0    0    0    0 -0.00000000000E+00 -0.00000000000E+00  0.11368683772E-12  0.17120000000E+03  0.17120000000E+03 0.  0.
         13    1    1    2    0    0 -0.10646102083E+02  0.39661788478E+01  0.53804523571E+02  0.54990980942E+02  0.10566000000E+00 0.  1.
        994    1    1    2    0    0 -0.67130567262E+00 -0.88442706663E+01  0.15098863661E+01  0.17143626084E+03  0.17120000000E+03 0.  0.
        998    1    1    2    0    0  0.11317407755E+02  0.48780918186E+01  0.14446855863E+04  0.14447727582E+04  0.10000000000E+02 0.  1.
</event>
<event>
 5    1  0.9130022E-009  0.3838103E+03  0.7957747E-01  0.3434734E+00
         13   -1    0    0    0    0  0.00000000000E+00  0.00000000000E+00  0.14999999963E+04  0.15000000000E+04  0.10566000000E+00 0.  1.
        994   -1    0    0    0    0 -0.00000000000E+00 -0.00000000000E+00  0.11368683772E-12  0.17120000000E+03  0.17120000000E+03 0.  0.
         13    1    1    2    0    0  0.53246936213E+01  0.15548722513E+02  0.61517640183E+02  0.63675319800E+02  0.10566000000E+00 0.  1.
        994    1    1    2    0    0 -0.83885094725E+01 -0.45076974470E+01  0.25213972818E+01  0.17148318831E+03  0.17120000000E+03 0.  0.
        998    1    1    2    0    0  0.30638158512E+01 -0.11041025066E+02  0.14359609588E+04  0.14360414919E+04  0.10000000000E+02 0.  1.
</event>
<event>
 5    1  0.9130022E-009  0.3813549E+03  0.7957747E-01  0.3445280E+00
         13   -1    0    0    0    0  0.00000000000E+00  0.00000000000E+00  0.14999999963E+04  0.15000000000E+04  0.10566000000E+00 0.  1.
        994   -1    0    0    0    0 -0.00000000000E+00 -0.00000000000E+00  0.11368683772E-12  0.17120000000E+03  0.17120000000E+03 0.  0.
         13    1    1    2    0    0  0.24668230098E+02  0.23918207668E+02  0.18711994889E+03  0.19024849190E+03  0.10566000000E+00 0.  1.
        994    1    1    2    0    0 -0.63753938551E+01 -0.45960195032E+01  0.36563781822E+01  0.17141930505E+03  0.17120000000E+03 0.  0.
        998    1    1    2    0    0 -0.18292836242E+02 -0.19322188164E+02  0.13092236692E+04  0.13095322030E+04  0.10000000000E+02 0.  1.
</event>
<event>
 5    1  0.9130022E-009  0.3779900E+03  0.7957747E-01  0.3459957E+00
         13   -1    0    0    0    0  0.00000000000E+00  0.00000000000E+00  0.14999999963E+04  0.15000000000E+04  0.10566000000E+00 0. -1.
        994   -1    0    0    0    0 -0.00000000000E+00 -0.00000000000E+00  0.11368683772E-12  0.17120000000E+03  0.17120000000E+03 0.  0.
         13    1    1    2    0    0 -0.79219211667E+02 -0.84088215660E+02  0.32602997132E+03  0.34589314083E+03  0.10566000000E+00 0. -1.
        994    1    1    2    0    0  0.89271239889E+02  0.78664213402E+02  0.68092249656E+02  0.21932488962E+03  0.17120000000E+03 0.  0.
        998    1    1    2    0    0 -0.10052028222E+02  0.54240022579E+01  0.11058777753E+04  0.11059819696E+04  0.10000000000E+02 0.  0.
</event>
<event>
 5    1  0.9130022E-009  0.3743677E+03  0.7957747E-01  0.3476056E+00
         13   -1    0    0    0    0  0.00000000000E+00  0.00000000000E+00  0.14999999963E+04  0.15000000000E+04  0.10566000000E+00 0.  1.
        994   -1    0    0    0    0 -0.00000000000E+00 -0.00000000000E+00  0.11368683772E-12  0.17120000000E+03  0.17120000000E+03 0.  0.
         13    1    1    2    0    0  0.50466198798E+02  0.16326332121E+02  0.17472459772E+03  0.18259814499E+03  0.10566000000E+00 0.  1.
        994    1    1    2    0    0 -0.51121963005E+02 -0.19798068642E+02  0.17311524011E+02  0.18059498190E+03  0.17120000000E+03 0.  0.
        998    1    1    2    0    0  0.65576420671E+00  0.34717365203E+01  0.13079638745E+04  0.13080068731E+04  0.10000000000E+02 0.  1.
</event>
<event>
 5    1  0.9130022E-009  0.3753941E+03  0.7957747E-01  0.3471462E+00
         13   -1    0    0    0    0  0.00000000000E+00  0.00000000000E+00  0.14999999963E+04  0.15000000000E+04  0.10566000000E+00 0. -1.
        994   -1    0    0    0    0 -0.00000000000E+00 -0.00000000000E+00  0.11368683772E-12  0.17120000000E+03  0.17120000000E+03 0.  0.
         13    1    1    2    0    0  0.29210821565E+02 -0.16790484101E+02  0.84413344364E+02  0.90889033022E+02  0.10566000000E+00 0. -1.
        994    1    1    2    0    0 -0.20662200492E+02  0.11362711634E+02  0.83663565422E+01  0.17301870901E+03  0.17120000000E+03 0.  0.
        998    1    1    2    0    0 -0.85486210732E+01  0.54277724668E+01  0.14072202954E+04  0.14072922580E+04  0.10000000000E+02 0. -1.
</event>
<event>
 5    1  0.9130022E-009  0.3088585E+03  0.7957747E-01  0.3834739E+00
         13   -1    0    0    0    0  0.00000000000E+00  0.00000000000E+00  0.14999999963E+04  0.15000000000E+04  0.10566000000E+00 0. -1.
        994   -1    0    0    0    0 -0.00000000000E+00 -0.00000000000E+00  0.11368683772E-12  0.17120000000E+03  0.17120000000E+03 0.  0.
         13    1    1    2    0    0 -0.12637627470E+03 -0.13399237408E+03  0.87412677161E+03  0.89332107505E+03  0.10566000000E+00 0. -1.
        994    1    1    2    0    0  0.32061563790E+02  0.94805502014E+02  0.66483559639E+02  0.20915432290E+03  0.17120000000E+03 0.  0.
        998    1    1    2    0    0  0.94314710909E+02  0.39186872070E+02  0.55938966503E+03  0.56872460205E+03  0.10000000000E+02 0.  1.
</event>
<event>
 5    1  0.9130022E-009  0.3814633E+03  0.7957747E-01  0.3444812E+00
         13   -1    0    0    0    0  0.00000000000E+00  0.00000000000E+00  0.14999999963E+04  0.15000000000E+04  0.10566000000E+00 0.  1.
        994   -1    0    0    0    0 -0.00000000000E+00 -0.00000000000E+00  0.11368683772E-12  0.17120000000E+03  0.17120000000E+03 0.  0.
         13    1    1    2    0    0 -0.20323521674E+02 -0.15108868476E+02  0.87766508621E+02  0.91347110734E+02  0.10566000000E+00 0.  1.
        994    1    1    2    0    0  0.36151704864E+02 -0.21019574373E+01  0.77713158714E+01  0.17516049024E+03  0.17120000000E+03 0.  0.
        998    1    1    2    0    0 -0.15828183190E+02  0.17210825913E+02  0.14044621718E+04  0.14046923990E+04  0.10000000000E+02 0.  1.
</event>
<event>
 5    1  0.9130022E-009  0.3790382E+03  0.7957747E-01  0.3455357E+00
         13   -1    0    0    0    0  0.00000000000E+00  0.00000000000E+00  0.14999999963E+04  0.15000000000E+04  0.10566000000E+00 0. -1.
        994   -1    0    0    0    0 -0.00000000000E+00 -0.00000000000E+00  0.11368683772E-12  0.17120000000E+03  0.17120000000E+03 0.  0.
         13    1    1    2    0    0  0.22970176008E+02 -0.31196973374E+02  0.17057900342E+03  0.17492309083E+03  0.10566000000E+00 0. -1.
        994    1    1    2    0    0 -0.13298677129E+02  0.71509186166E+01  0.53843838651E+01  0.17194889369E+03  0.17120000000E+03 0.  0.
        998    1    1    2    0    0 -0.96714988789E+01  0.24046054758E+02  0.13240366090E+04  0.13243280155E+04  0.10000000000E+02 0. -1.
</event>
<event>
 5    1  0.9130022E-009  0.3774365E+03  0.7957747E-01  0.3462397E+00
         13   -1    0    0    0    0  0.00000000000E+00  0.00000000000E+00  0.14999999963E+04  0.15000000000E+04  0.10566000000E+00 0.  1.
        994   -1    0    0    0    0 -0.00000000000E+00 -0.00000000000E+00  0.11368683772E-12  0.17120000000E+03  0.17120000000E+03 0.  0.
         13    1    1    2    0    0 -0.19621085827E+03  0.40653731305E+02  0.10977457997E+04  0.11158840795E+04  0.10566000000E+00 0.  1.
        994    1    1    2    0    0  0.18229097015E+03 -0.50554077571E+02  0.13751356905E+03  0.28983639218E+03  0.17120000000E+03 0.  0.
        998    1    1    2    0    0  0.13919888124E+02  0.99003462660E+01  0.26474062748E+03  0.26547952837E+03  0.10000000000E+02 0.  0.
</event>
<event>
 5    1  0.9130022E-009  0.3821672E+03  0.7957747E-01  0.3441776E+00
         13   -1    0    0    0    0  0.00000000000E+00  0.00000000000E+00  0.14999999963E+04  0.15000000000E+04  0.10566000000E+00 0.  1.
        994   -1    0    0    0    0 -0.00000000000E+00 -0.00000000000E+00  0.11368683772E-12  0.17120000000E+03  0.17120000000E+03 0.  0.
         13    1    1    2    0    0 -0.11973732214E+02 -0.62463796434E+01  0.28549805137E+02  0.31583066019E+02  0.10566000000E+00 0.  1.
        994    1    1    2    0    0  0.16439228659E+02 -0.48414422395E+01  0.40185288701E+01  0.17210251705E+03  0.17120000000E+03 0.  0.
        998    1    1    2    0    0 -0.44654964455E+01  0.11087821883E+02  0.14674316623E+04  0.14675144169E+04  0.10000000000E+02 0.  1.
</event>
<event>
 5    1  0.9130022E-009  0.3775765E+03  0.7957747E-01  0.3461779E+00
         13   -1    0    0    0    0  0.00000000000E+00  0.00000000000E+00  0.14999999963E+04  0.15000000000E+04  0.10566000000E+00 0. -1.
        994   -1    0    0    0    0 -0.00000000000E+00 -0.00000000000E+00  0.11368683772E-12  0.17120000000E+03  0.17120000000E+03 0.  0.
         13    1    1    2    0    0 -0.10981194532E+02  0.36417423999E+01  0.94247335895E+01  0.14922656879E+02  0.10566000000E+00 0. -1.
        994    1    1    2    0    0  0.36585542323E+02 -0.65438151170E+01  0.10030630731E+02  0.17547471891E+03  0.17120000000E+03 0.  0.
        998    1    1    2    0    0 -0.25604347791E+02  0.29020727172E+01  0.14805446320E+04  0.14808026242E+04  0.10000000000E+02 0. -1.
</event>
<event>
 5    1  0.9130022E-009  0.3813664E+03  0.7957747E-01  0.3445230E+00
         13   -1    0    0    0    0  0.00000000000E+00  0.00000000000E+00  0.14999999963E+04  0.15000000000E+04  0.10566000000E+00 0.  1.
        994   -1    0    0    0    0 -0.00000000000E+00 -0.00000000000E+00  0.11368683772E-12  0.17120000000E+03  0.17120000000E+03 0.  0.
         13    1    1    2    0    0  0.17111208451E+02 -0.53337827244E+01  0.44023780603E+02  0.47532590035E+02  0.10566000000E+00 0.  1.
        994    1    1    2    0    0 -0.17092523282E+02  0.11834570578E+02  0.48846658298E+01  0.17252684247E+03  0.17120000000E+03 0.  0.
        998    1    1    2    0    0 -0.18685169237E-01 -0.65007878535E+01  0.14510915498E+04  0.14511405675E+04  0.10000000000E+02 0.  1.
</event>
<event>
 5    1  0.9130022E-009  0.3792436E+03  0.7957747E-01  0.3454459E+00
         13   -1    0    0    0    0  0.00000000000E+00  0.00000000000E+00  0.14999999963E+04  0.15000000000E+04  0.10566000000E+00 0.  1.
        994   -1    0    0    0    0 -0.00000000000E+00 -0.00000000000E+00  0.11368683772E-12  0.17120000000E+03  0.17120000000E+03 0.  0.
         13    1    1    2    0    0  0.60126419291E+01 -0.46223187006E+02  0.65588682951E+02  0.80465032003E+02  0.10566000000E+00 0.  1.
        994    1    1    2    0    0  0.15440317877E+02  0.17158543999E+02  0.17840028478E+02  0.17366786019E+03  0.17120000000E+03 0.  0.
        998    1    1    2    0    0 -0.21452959806E+02  0.29064643007E+02  0.14165712848E+04  0.14170671078E+04  0.10000000000E+02 0.  1.
</event>
<event>
 5    1  0.9130022E-009  0.3850506E+03  0.7957747E-01  0.3429458E+00
         13   -1    0    0    0    0  0.00000000000E+00  0.00000000000E+00  0.14999999963E+04  0.15000000000E+04  0.10566000000E+00 0. -1.
        994   -1    0    0    0    0 -0.00000000000E+00 -0.00000000000E+00  0.11368683772E-12  0.17120000000E+03  0.17120000000E+03 0.  0.
         13    1    1    2    0    0  0.15764356367E+02 -0.35266156687E+01  0.83607676154E+02  0.85154017084E+02  0.10566000000E+00 0. -1.
        994    1    1    2    0    0 -0.68323147092E+01  0.42682467229E+00  0.17591161633E+01  0.17134584090E+03  0.17120000000E+03 0.  0.
        998    1    1    2    0    0 -0.89320416576E+01  0.30997909964E+01  0.14146332040E+04  0.14147001420E+04  0.10000000000E+02 0. -1.
</event>
<event>
 5    1  0.9130022E-009  0.4079574E+03  0.7957747E-01  0.3337784E+00
         13   -1    0    0    0    0  0.00000000000E+00  0.00000000000E+00  0.14999999963E+04  0.15000000000E+04  0.10566000000E+00 0. -1.
        994   -1    0    0    0    0 -0.00000000000E+00 -0.00000000000E+00  0.11368683772E-12  0.17120000000E+03  0.17120000000E+03 0.  0.
         13    1    1    2    0    0  0.41730737403E+02 -0.22531146521E+01  0.13561921807E+02  0.43937089764E+02  0.10566000000E+00 0. -1.
        994    1    1    2    0    0 -0.43648493918E+02  0.22632710479E+02  0.42467937709E+02  0.18311306982E+03  0.17120000000E+03 0.  0.
        998    1    1    2    0    0  0.19177565156E+01 -0.20379595827E+02  0.14439701368E+04  0.14441498404E+04  0.10000000000E+02 0. -1.
</event>
<event>
 5    1  0.9130022E-009  0.3770917E+03  0.7957747E-01  0.3463921E+00
         13   -1    0    0    0    0  0.00000000000E+00  0.00000000000E+00  0.14999999963E+04  0.15000000000E+04  0.10566000000E+00 0.  1.
        994   -1    0    0    0    0 -0.00000000000E+00 -0.00000000000E+00  0.11368683772E-12  0.17120000000E+03  0.17120000000E+03 0.  0.
         13    1    1    2    0    0  0.60518309092E+02  0.59827455224E+02  0.21379779710E+03  0.23011149329E+03  0.10566000000E+00 0.  1.
        994    1    1    2    0    0 -0.40904370015E+02 -0.69757040981E+02  0.38574324920E+02  0.19322688942E+03  0.17120000000E+03 0.  0.
        998    1    1    2    0    0 -0.19613939077E+02  0.99295857568E+01  0.12476278743E+04  0.12478616173E+04  0.10000000000E+02 0.  1.
</event>
<event>
 5    1  0.9130022E-009  0.3851501E+03  0.7957747E-01  0.3429036E+00
         13   -1    0    0    0    0  0.00000000000E+00  0.00000000000E+00  0.14999999963E+04  0.15000000000E+04  0.10566000000E+00 0. -1.
        994   -1    0    0    0    0 -0.00000000000E+00 -0.00000000000E+00  0.11368683772E-12  0.17120000000E+03  0.17120000000E+03 0.  0.
         13    1    1    2    0    0  0.13289220852E+01  0.18427472488E+02  0.10560550486E+03  0.10720947532E+03  0.10566000000E+00 0. -1.
        994    1    1    2    0    0  0.20544598962E+01 -0.16790063896E+02  0.24967015893E+01  0.17205173806E+03  0.17120000000E+03 0.  0.
        998    1    1    2    0    0 -0.33833819814E+01 -0.16374085919E+01  0.13918977898E+04  0.13919387866E+04  0.10000000000E+02 0.  0.
</event>
<event>
 5    1  0.9130022E-009  0.3810989E+03  0.7957747E-01  0.3446388E+00
         13   -1    0    0    0    0  0.00000000000E+00  0.00000000000E+00  0.14999999963E+04  0.15000000000E+04  0.10566000000E+00 0.  1.
        994   -1    0    0    0    0 -0.00000000000E+00 -0.00000000000E+00  0.11368683772E-12  0.17120000000E+03  0.17120000000E+03 0.  0.
         13    1    1    2    0    0  0.28034429558E+02 -0.14585366180E+02  0.17354175330E+03  0.17639561630E+03  0.10566000000E+00 0.  1.
        994    1    1    2    0    0  0.21935634847E+02  0.20534564690E+02  0.65924809740E+01  0.17394177540E+03  0.17120000000E+03 0.  0.
        998    1    1    2    0    0 -0.49970064405E+02 -0.59491985105E+01  0.13198657620E+04  0.13208626083E+04  0.10000000000E+02 0. -1.
</event>
<event>
 5    1  0.9130022E-009  0.3806559E+03  0.7957747E-01  0.3448307E+00
         13   -1    0    0    0    0  0.00000000000E+00  0.00000000000E+00  0.14999999963E+04  0.15000000000E+04  0.10566000000E+00 0. -1.
        994   -1    0    0    0    0 -0.00000000000E+00 -0.00000000000E+00  0.11368683772E-12  0.17120000000E+03  0.17120000000E+03 0.  0.
         13    1    1    2    0    0 -0.14487448716E+02  0.33550390784E+02  0.15904290442E+03  0.16318753476E+03  0.10566000000E+00 0. -1.
        994    1    1    2    0    0  0.10073346393E+02 -0.33933530931E+02  0.79931791874E+01  0.17500367923E+03  0.17120000000E+03 0.  0.
        998    1    1    2    0    0  0.44141023234E+01  0.38314014707E+00  0.13329639127E+04  0.13330087860E+04  0.10000000000E+02 0. -1.
</event>
<event>
 5    1  0.9130022E-009  0.3832525E+03  0.7957747E-01  0.3437118E+00
         13   -1    0    0    0    0  0.00000000000E+00  0.00000000000E+00  0.14999999963E+04  0.15000000000E+04  0.10566000000E+00 0. -1.
        994   -1    0    0    0    0 -0.00000000000E+00 -0.00000000000E+00  0.11368683772E-12  0.17120000000E+03  0.17120000000E+03 0.  0.
         13    1    1    2    0    0 -0.18581291292E+02 -0.57133121080E+00  0.68662828873E+02  0.71134984630E+02  0.10566000000E+00 0. -1.
        994    1    1    2    0    0  0.11575036882E+02 -0.62702500876E+01  0.30736158030E+01  0.17173288744E+03  0.17120000000E+03 0.  0.
        998    1    1    2    0    0  0.70062544093E+01  0.68415812984E+01  0.14282635516E+04  0.14283321279E+04  0.10000000000E+02 0. -1.
</event>
<event>
 5    1  0.9130022E-009  0.3823664E+03  0.7957747E-01  0.3440919E+00
         13   -1    0    0    0    0  0.00000000000E+00  0.00000000000E+00  0.14999999963E+04  0.15000000000E+04  0.10566000000E+00 0. -1.
        994   -1    0    0    0    0 -0.00000000000E+00 -0.00000000000E+00  0.11368683772E-12  0.17120000000E+03  0.17120000000E+03 0.  0.
         13    1    1    2    0    0  0.22146980890E+02  0.90472869686E+01  0.84371562434E+01  0.25368069173E+02  0.10566000000E+00 0. -1.
        994    1    1    2    0    0 -0.22747441767E+02 -0.10870214984E+02  0.19959829291E+02  0.17419369238E+03  0.17120000000E+03 0.  0.
        998    1    1    2    0    0  0.60046087639E+00  0.18229280159E+01  0.14716030107E+04  0.14716382384E+04  0.10000000000E+02 0. -1.
</event>
<event>
 5    1  0.9130022E-009  0.3773379E+03  0.7957747E-01  0.3462832E+00
         13   -1    0    0    0    0  0.00000000000E+00  0.00000000000E+00  0.14999999963E+04  0.15000000000E+04  0.10566000000E+00 0.  1.
        994   -1    0    0    0    0 -0.00000000000E+00 -0.00000000000E+00  0.11368683772E-12  0.17120000000E+03  0.17120000000E+03 0.  0.
         13    1    1    2    0    0 -0.59042913340E+01 -0.13033052042E+02  0.16369968356E+02  0.21741852030E+02  0.10566000000E+00 0.  1.
        994    1    1    2    0    0  0.48169624123E+01  0.68016797755E+01  0.57173345770E+01  0.17149808713E+03  0.17120000000E+03 0.  0.
        998    1    1    2    0    0  0.10873289217E+01  0.62313722668E+01  0.14779126933E+04  0.14779600608E+04  0.10000000000E+02 0.  1.
</event>
<event>
 5    1  0.9130022E-009  0.3699363E+03  0.7957747E-01  0.3496183E+00
         13   -1    0    0    0    0  0.00000000000E+00  0.00000000000E+00  0.14999999963E+04  0.15000000000E+04  0.10566000000E+00 0. -1.
        994   -1    0    0    0    0 -0.00000000000E+00 -0.00000000000E+00  0.11368683772E-12  0.17120000000E+03  0.17120000000E+03 0.  0.
         13    1    1    2    0    0 -0.65177490327E+02 -0.36804474964E+02  0.24585680455E+03  0.25699854889E+03  0.10566000000E+00 0. -1.
        994    1    1    2    0    0  0.71909854915E+02  0.29572887264E+02  0.30511223222E+02  0.19048873362E+03  0.17120000000E+03 0.  0.
        998    1    1    2    0    0 -0.67323645883E+01  0.72315876999E+01  0.12236319685E+04  0.12237127175E+04  0.10000000000E+02 0. -1.
</event>
<event>
 5    1  0.9130022E-009  0.3814437E+03  0.7957747E-01  0.3444896E+00
         13   -1    0    0    0    0  0.00000000000E+00  0.00000000000E+00  0.14999999963E+04  0.15000000000E+04  0.10566000000E+00 0.  1.
        994   -1    0    0    0    0 -0.00000000000E+00 -0.00000000000E+00  0.11368683772E-12  0.17120000000E+03  0.17120000000E+03 0.  0.
         13    1    1    2    0    0  0.30675696016E+02 -0.27530079888E+02  0.22452044972E+03  0.22827252820E+03  0.10566000000E+00 0.  1.
        994    1    1    2    0    0 -0.16860989583E+02  0.35029006243E+02  0.84507452927E+01  0.17576171183E+03  0.17120000000E+03 0.  0.
        998    1    1    2    0    0 -0.13814706432E+02 -0.74989263545E+01  0.12670288013E+04  0.12671657600E+04  0.10000000000E+02 0. -1.
</event>
<event>
 5    1  0.9130022E-009  0.3774503E+03  0.7957747E-01  0.3462336E+00
         13   -1    0    0    0    0  0.00000000000E+00  0.00000000000E+00  0.14999999963E+04  0.15000000000E+04  0.10566000000E+00 0.  1.
        994   -1    0    0    0    0 -0.00000000000E+00 -0.00000000000E+00  0.11368683772E-12  0.17120000000E+03  0.17120000000E+03 0.  0.
         13    1    1    2    0    0 -0.63841006420E+02  0.64774600533E+01  0.32936811157E+03  0.33556071831E+03  0.10566000000E+00 0.  1.
        994    1    1    2    0    0  0.53771091510E+02  0.75254426754E+01  0.15429649080E+02  0.18026501779E+03  0.17120000000E+03 0.  0.
        998    1    1    2    0    0  0.10069914910E+02 -0.14002902729E+02  0.11552022356E+04  0.11553742639E+04  0.10000000000E+02 0.  1.
</event>
<event>
 5    1  0.9130022E-009  0.3729129E+03  0.7957747E-01  0.3482610E+00
         13   -1    0    0    0    0  0.00000000000E+00  0.00000000000E+00  0.14999999963E+04  0.15000000000E+04  0.10566000000E+00 0.  1.
        994   -1    0    0    0    0 -0.00000000000E+00 -0.00000000000E+00  0.11368683772E-12  0.17120000000E+03  0.17120000000E+03 0.  0.
         13    1    1    2    0    0  0.15513258069E+01  0.17324563767E+02  0.15990774745E+02  0.23627593243E+02  0.10566000000E+00 0.  1.
        994    1    1    2    0    0  0.52123846091E+00 -0.16322862580E+02  0.86679747954E+01  0.17219547415E+03  0.17120000000E+03 0.  0.
        998    1    1    2    0    0 -0.20725642678E+01 -0.10017011869E+01  0.14753412467E+04  0.14753769326E+04  0.10000000000E+02 0.  1.
</event>
<event>
 5    1  0.9130022E-009  0.3836545E+03  0.7957747E-01  0.3435399E+00
         13   -1    0    0    0    0  0.00000000000E+00  0.00000000000E+00  0.14999999963E+04  0.15000000000E+04  0.10566000000E+00 0.  1.
        994   -1    0    0    0    0 -0.00000000000E+00 -0.00000000000E+00  0.11368683772E-12  0.17120000000E+03  0.17120000000E+03 0.  0.
         13    1    1    2    0    0 -0.17509417661E+02  0.31358509218E+01  0.69281700828E+02  0.71528864813E+02  0.10566000000E+00 0.  1.
        994    1    1    2    0    0  0.95979023383E+01  0.34976595121E+01  0.26443767853E+01  0.17152488473E+03  0.17120000000E+03 0.  0.
        998    1    1    2    0    0  0.79115153224E+01 -0.66335104338E+01  0.14280739187E+04  0.14281462505E+04  0.10000000000E+02 0.  1.
</event>
<event>
 5    1  0.9130022E-009  0.3830289E+03  0.7957747E-01  0.3438075E+00
         13   -1    0    0    0    0  0.00000000000E+00  0.00000000000E+00  0.14999999963E+04  0.15000000000E+04  0.10566000000E+00 0. -1.
        994   -1    0    0    0    0 -0.00000000000E+00 -0.00000000000E+00  0.11368683772E-12  0.17120000000E+03  0.17120000000E+03 0.  0.
         13    1    1    2    0    0  0.69937319365E+01  0.10970349267E+02  0.36160209756E+02  0.38429582135E+02  0.10566000000E+00 0. -1.
        994    1    1    2    0    0  0.14974169515E+01  0.29315686089E+02  0.54690284850E+01  0.17378435482E+03  0.17120000000E+03 0.  0.
        998    1    1    2    0    0 -0.84911488880E+01 -0.40286035356E+02  0.14583707580E+04  0.14589860630E+04  0.10000000000E+02 0. -1.
</event>
<event>
 5    1  0.9130022E-009  0.3725054E+03  0.7957747E-01  0.3484455E+00
         13   -1    0    0    0    0  0.00000000000E+00  0.00000000000E+00  0.14999999963E+04  0.15000000000E+04  0.10566000000E+00 0. -1.
        994   -1    0    0    0    0 -0.00000000000E+00 -0.00000000000E+00  0.11368683772E-12  0.17120000000E+03  0.17120000000E+03 0.  0.
         13    1    1    2    0    0  0.80221044036E+02 -0.45428773423E+02  0.39096050300E+03  0.40168310324E+03  0.10566000000E+00 0. -1.
        994    1    1    2    0    0 -0.29403763343E+02  0.18845667194E+02  0.16583885550E+02  0.17551126953E+03  0.17120000000E+03 0.  0.
        998    1    1    2    0    0 -0.50817280694E+02  0.26583106229E+02  0.10924556077E+04  0.10940056272E+04  0.10000000000E+02 0. -1.
</event>
<event>
 5    1  0.9130022E-009  0.3686077E+03  0.7957747E-01  0.3502314E+00
         13   -1    0    0    0    0  0.00000000000E+00  0.00000000000E+00  0.14999999963E+04  0.15000000000E+04  0.10566000000E+00 0.  1.
        994   -1    0    0    0    0 -0.00000000000E+00 -0.00000000000E+00  0.11368683772E-12  0.17120000000E+03  0.17120000000E+03 0.  0.
         13    1    1    2    0    0  0.24724759629E+02 -0.51973777767E+02  0.15499767857E+03  0.16533867920E+03  0.10566000000E+00 0.  1.
        994    1    1    2    0    0 -0.23475412495E+02  0.33718423419E+02  0.16100184289E+02  0.17679559668E+03  0.17120000000E+03 0.  0.
        998    1    1    2    0    0 -0.12493471348E+01  0.18255354348E+02  0.13289021334E+04  0.13290657241E+04  0.10000000000E+02 0.  1.
</event>
<event>
 5    1  0.9130022E-009  0.3816670E+03  0.7957747E-01  0.3443932E+00
         13   -1    0    0    0    0  0.00000000000E+00  0.00000000000E+00  0.14999999963E+04  0.15000000000E+04  0.10566000000E+00 0. -1.
        994   -1    0    0    0    0 -0.00000000000E+00 -0.00000000000E+00  0.11368683772E-12  0.17120000000E+03  0.17120000000E+03 0.  0.
         13    1    1    2    0    0  0.58746438143E+01 -0.90817723588E+01  0.16462057016E+02  0.19697728660E+02  0.10566000000E+00 0. -1.
        994    1    1    2    0    0 -0.92794927232E+01  0.15554775591E+01  0.35884102453E+01  0.17149590428E+03  0.17120000000E+03 0.  0.
        998    1    1    2    0    0  0.34048489089E+01  0.75262947998E+01  0.14799495290E+04  0.14800063671E+04  0.10000000000E+02 0. -1.
</event>
<event>
 5    1  0.9130022E-009  0.3064064E+03  0.7957747E-01  0.3851319E+00
         13   -1    0    0    0    0  0.00000000000E+00  0.00000000000E+00  0.14999999963E+04  0.15000000000E+04  0.10566000000E+00 0. -1.
        994   -1    0    0    0    0 -0.00000000000E+00 -0.00000000000E+00  0.11368683772E-12  0.17120000000E+03  0.17120000000E+03 0.  0.
         13    1    1    2    0    0  0.22683559110E+03 -0.22664456880E+02  0.58035214540E+03  0.62351959618E+03  0.10566000000E+00 0. -1.
        994    1    1    2    0    0 -0.22592220586E+03  0.23182515455E+02  0.25209580905E+03  0.38005263986E+03  0.17120000000E+03 0.  0.
        998    1    1    2    0    0 -0.91338524431E+00 -0.51805857443E+00  0.66755204183E+03  0.66762776396E+03  0.10000000000E+02 0.  0.
</event>
<event>
 5    1  0.9130022E-009  0.3782339E+03  0.7957747E-01  0.3458885E+00
         13   -1    0    0    0    0  0.00000000000E+00  0.00000000000E+00  0.14999999963E+04  0.15000000000E+04  0.10566000000E+00 0. -1.
        994   -1    0    0    0    0 -0.00000000000E+00 -0.00000000000E+00  0.11368683772E-12  0.17120000000E+03  0.17120000000E+03 0.  0.
         13    1    1    2    0    0 -0.12412759305E+02  0.34106200180E+01  0.14734163976E+02  0.19565675930E+02  0.10566000000E+00 0. -1.
        994    1    1    2    0    0  0.14015236500E+00  0.15151000985E+02  0.57996288396E+01  0.17196699732E+03  0.17120000000E+03 0.  0.
        998    1    1    2    0    0  0.12272606940E+02 -0.18561621003E+02  0.14794662035E+04  0.14796673267E+04  0.10000000000E+02 0. -1.
</event>
<event>
 5    1  0.9130022E-009  0.3753289E+03  0.7957747E-01  0.3471753E+00
         13   -1    0    0    0    0  0.00000000000E+00  0.00000000000E+00  0.14999999963E+04  0.15000000000E+04  0.10566000000E+00 0. -1.
        994   -1    0    0    0    0 -0.00000000000E+00 -0.00000000000E+00  0.11368683772E-12  0.17120000000E+03  0.17120000000E+03 0.  0.
         13    1    1    2    0    0 -0.26848199233E+02 -0.43467034357E+01  0.53035000140E+02  0.59602366033E+02  0.10566000000E+00 0. -1.
        994    1    1    2    0    0  0.32700937431E+02 -0.46545681381E+02  0.17577437497E+02  0.18125743591E+03  0.17120000000E+03 0.  0.
        998    1    1    2    0    0 -0.58527381979E+01  0.50892384816E+02  0.14293875586E+04  0.14303401981E+04  0.10000000000E+02 0. -1.
</event>
<event>
 5    1  0.9130022E-009  0.3851018E+03  0.7957747E-01  0.3429240E+00
         13   -1    0    0    0    0  0.00000000000E+00  0.00000000000E+00  0.14999999963E+04  0.15000000000E+04  0.10566000000E+00 0. -1.
        994   -1    0    0    0    0 -0.00000000000E+00 -0.00000000000E+00  0.11368683772E-12  0.17120000000E+03  0.17120000000E+03 0.  0.
         13    1    1    2    0    0 -0.93821212239E+01 -0.76735194172E+01  0.50724047502E+02  0.52152154873E+02  0.10566000000E+00 0. -1.
        994    1    1    2    0    0 -0.13661462089E+02  0.59585437198E+01  0.23102242916E+01  0.17186307610E+03  0.17120000000E+03 0.  0.
        998    1    1    2    0    0  0.23043583313E+02  0.17149756975E+01  0.14469657245E+04  0.14471847690E+04  0.10000000000E+02 0. -1.
</event>
<event>
 5    1  0.9130022E-009  0.3702698E+03  0.7957747E-01  0.3494652E+00
         13   -1    0    0    0    0  0.00000000000E+00  0.00000000000E+00  0.14999999963E+04  0.15000000000E+04  0.10566000000E+00 0.  1.
        994   -1    0    0    0    0 -0.00000000000E+00 -0.00000000000E+00  0.11368683772E-12  0.17120000000E+03  0.17120000000E+03 0.  0.
         13    1    1    2    0    0 -0.39795198060E+02  0.49203559593E+01  0.85740027160E+02  0.94653215016E+02  0.10566000000E+00 0.  1.
        994    1    1    2    0    0  0.23926288152E+02  0.11511228907E+02  0.11567236737E+02  0.17363241812E+03  0.17120000000E+03 0.  0.
        998    1    1    2    0    0  0.15868909908E+02 -0.16431584867E+02  0.14026927324E+04  0.14029143669E+04  0.10000000000E+02 0.  1.
</event>
<event>
 5    1  0.9130022E-009  0.3811453E+03  0.7957747E-01  0.3446187E+00
         13   -1    0    0    0    0  0.00000000000E+00  0.00000000000E+00  0.14999999963E+04  0.15000000000E+04  0.10566000000E+00 0. -1.
        994   -1    0    0    0    0 -0.00000000000E+00 -0.00000000000E+00  0.11368683772E-12  0.17120000000E+03  0.17120000000E+03 0.  0.
         13    1    1    2    0    0  0.58817282126E+01  0.10796212178E+02  0.20157019033E+02  0.23610792119E+02  0.10566000000E+00 0. -1.
        994    1    1    2    0    0  0.40575757186E+01 -0.48852673186E+01  0.36904244251E+01  0.17135748886E+03  0.17120000000E+03 0.  0.
        998    1    1    2    0    0 -0.99393039312E+01 -0.59109448592E+01  0.14761525528E+04  0.14762317190E+04  0.10000000000E+02 0. -1.
</event>
<event>
 5    1  0.9130022E-009  0.3793482E+03  0.7957747E-01  0.3454002E+00
         13   -1    0    0    0    0  0.00000000000E+00  0.00000000000E+00  0.14999999963E+04  0.15000000000E+04  0.10566000000E+00 0.  1.
        994   -1    0    0    0    0 -0.00000000000E+00 -0.00000000000E+00  0.11368683772E-12  0.17120000000E+03  0.17120000000E+03 0.  0.
         13    1    1    2    0    0  0.79468517155E+01  0.64775764309E+01  0.97502824685E+01  0.14148873484E+02  0.10566000000E+00 0.  1.
        994    1    1    2    0    0 -0.36775344952E+01 -0.98202261412E+01  0.48310119811E+01  0.17158886846E+03  0.17120000000E+03 0.  0.
        998    1    1    2    0    0 -0.42693172203E+01  0.33426497104E+01  0.14854187018E+04  0.14854622581E+04  0.10000000000E+02 0.  1.
</event>
<event>
 5    1  0.9130022E-009  0.3774369E+03  0.7957747E-01  0.3462395E+00
         13   -1    0    0    0    0  0.00000000000E+00  0.00000000000E+00  0.14999999963E+04  0.15000000000E+04  0.10566000000E+00 0.  1.
        994   -1    0    0    0    0 -0.00000000000E+00 -0.00000000000E+00  0.11368683772E-12  0.17120000000E+03  0.17120000000E+03 0.  0.
         13    1    1    2    0    0 -0.11910047975E+03  0.15435039034E+03  0.74988951509E+03  0.77481821306E+03  0.10566000000E+00 0.  1.
        994    1    1    2    0    0  0.14879860200E+03 -0.17358976890E+03  0.20876543375E+03  0.35378931323E+03  0.17120000000E+03 0.  0.
        998    1    1    2    0    0 -0.29698122250E+02  0.19239378556E+02  0.54134504743E+03  0.54259247371E+03  0.10000000000E+02 0.  1.
</event>
<event>
 5    1  0.9130022E-009  0.3828987E+03  0.7957747E-01  0.3438633E+00
         13   -1    0    0    0    0  0.00000000000E+00  0.00000000000E+00  0.14999999963E+04  0.15000000000E+04  0.10566000000E+00 0. -1.
        994   -1    0    0    0    0 -0.00000000000E+00 -0.00000000000E+00  0.11368683772E-12  0.17120000000E+03  0.17120000000E+03 0.  0.
         13    1    1    2    0    0  0.34680731683E+01 -0.24634417314E+02  0.13609644431E+03  0.13835149210E+03  0.10566000000E+00 0. -1.
        994    1    1    2    0    0 -0.19080586008E+01 -0.77396640006E+01  0.28874487001E+01  0.17140980266E+03  0.17120000000E+03 0.  0.
        998    1    1    2    0    0 -0.15600145675E+01  0.32374081314E+02  0.13610161033E+04  0.13614387052E+04  0.10000000000E+02 0. -1.
</event>
<event>
 5    1  0.9130022E-009  0.3707782E+03  0.7957747E-01  0.3492322E+00
         13   -1    0    0    0    0  0.00000000000E+00  0.00000000000E+00  0.14999999963E+04  0.15000000000E+04  0.10566000000E+00 0.  1.
        994   -1    0    0    0    0 -0.00000000000E+00 -0.00000000000E+00  0.11368683772E-12  0.17120000000E+03  0.17120000000E+03 0.  0.
         13    1    1    2    0    0 -0.64268326748E+02 -0.66962476246E+00  0.25944701972E+03  0.26728941884E+03  0.10566000000E+00 0.  1.
        994    1    1    2    0    0  0.18167390550E+02 -0.47837511841E+01  0.10080851778E+02  0.17252246789E+03  0.17120000000E+03 0.  0.
        998    1    1    2    0    0  0.46100936198E+02  0.54533759465E+01  0.12304721248E+04  0.12313881133E+04  0.10000000000E+02 0.  1.
</event>
<event>
 5    1  0.9130022E-009  0.3841686E+03  0.7957747E-01  0.3433206E+00
         13   -1    0    0    0    0  0.00000000000E+00  0.00000000000E+00  0.14999999963E+04  0.15000000000E+04  0.10566000000E+00 0. -1.
        994   -1    0    0    0    0 -0.00000000000E+00 -0.00000000000E+00  0.11368683772E-12  0.17120000000E+03  0.17120000000E+03 0.  0.
         13    1    1    2    0    0 -0.73917799364E+01  0.82272247443E+01  0.27790343232E+02  0.29910532904E+02  0.10566000000E+00 0. -1.
        994    1    1    2    0    0 -0.47659533474E+01 -0.34126930526E+02  0.59687104120E+01  0.17473530611E+03  0.17120000000E+03 0.  0.
        998    1    1    2    0    0  0.12157733284E+02  0.25899705781E+02  0.14662409426E+04  0.14665541610E+04  0.10000000000E+02 0. -1.
</event>
<event>
 5    1  0.9130022E-009  0.3845754E+03  0.7957747E-01  0.3431475E+00
         13   -1    0    0    0    0  0.00000000000E+00  0.00000000000E+00  0.14999999963E+04  0.15000000000E+04  0.10566000000E+00 0.  1.
        994   -1    0    0    0    0 -0.00000000000E+00 -0.00000000000E+00  0.11368683772E-12  0.17120000000E+03  0.17120000000E+03 0.  0.
         13    1    1    2    0    0  0.93504671511E+01 -0.63377840025E+01  0.32731543831E+02  0.34626057639E+02  0.10566000000E+00 0.  1.
        994    1    1    2    0    0 -0.80652054677E+01  0.21139117885E+02  0.35287058714E+01  0.17272464100E+03  0.17120000000E+03 0.  0.
        998    1    1    2    0    0 -0.12852616833E+01 -0.14801333883E+02  0.14637397466E+04  0.14638493014E+04  0.10000000000E+02 0.  1.
</event>
<event>
 5    1  0.9130022E-009  0.3725105E+03  0.7957747E-01  0.3484432E+00
         13   -1    0    0    0    0  0.00000000000E+00  0.00000000000E+00  0.14999999963E+04  0.15000000000E+04  0.10566000000E+00 0. -1.
        994   -1    0    0    0    0 -0.00000000000E+00 -0.00000000000E+00  0.11368683772E-12  0.17120000000E+03  0.17120000000E+03 0.  0.
         13    1    1    2    0    0 -0.14331661707E+02  0.15115830969E+02  0.22010699771E+02  0.30304569649E+02  0.10566000000E+00 0. -1.
        994    1    1    2    0    0  0.47989414538E+02 -0.19191671181E+02  0.17176018245E+02  0.17965455673E+03  0.17120000000E+03 0.  0.
        998    1    1    2    0    0 -0.33657752832E+02  0.40758402124E+01  0.14608132783E+04  0.14612408736E+04  0.10000000000E+02 0. -1.
</event>
<event>
 5    1  0.9130022E-009  0.3767547E+03  0.7957747E-01  0.3465412E+00
         13   -1    0    0    0    0  0.00000000000E+00  0.00000000000E+00  0.14999999963E+04  0.15000000000E+04  0.10566000000E+00 0. -1.
        994   -1    0    0    0    0 -0.00000000000E+00 -0.00000000000E+00  0.11368683772E-12  0.17120000000E+03  0.17120000000E+03 0.  0.
         13    1    1    2    0    0  0.17268703726E+02  0.11079877954E+02  0.32451943162E+02  0.38394161052E+02  0.10566000000E+00 0. -1.
        994    1    1    2    0    0 -0.20786672129E+02 -0.24685657806E+02  0.93078000914E+01  0.17446358526E+03  0.17120000000E+03 0.  0.
        998    1    1    2    0    0  0.35179684028E+01  0.13605779852E+02  0.14582402530E+04  0.14583422537E+04  0.10000000000E+02 0. -1.
</event>
<event>
 5    1  0.9130022E-009  0.3841582E+03  0.7957747E-01  0.3433250E+00
         13   -1    0    0    0    0  0.00000000000E+00  0.00000000000E+00  0.14999999963E+04  0.15000000000E+04  0.10566000000E+00 0. -1.
        994   -1    0    0    0    0 -0.00000000000E+00 -0.00000000000E+00  0.11368683772E-12  0.17120000000E+03  0.17120000000E+03 0.  0.
         13    1    1    2    0    0 -0.14323146616E+02 -0.21163207560E+02  0.14632324802E+03  0.14853800173E+03  0.10566000000E+00 0. -1.
        994    1    1    2    0    0 -0.93443091570E+01  0.38732430677E+02  0.73013730903E+01  0.17592688069E+03  0.17120000000E+03 0.  0.
        998    1    1    2    0    0  0.23667455773E+02 -0.17569223117E+02  0.13463753752E+04  0.13467351176E+04  0.10000000000E+02 0. -1.
</event>
<event>
 5    1  0.9130022E-009  0.3821729E+03  0.7957747E-01  0.3441752E+00
         13   -1    0    0    0    0  0.00000000000E+00  0.00000000000E+00  0.14999999963E+04  0.15000000000E+04  0.10566000000E+00 0.  1.
        994   -1    0    0    0    0 -0.00000000000E+00 -0.00000000000E+00  0.11368683772E-12  0.17120000000E+03  0.17120000000E+03 0.  0.
         13    1    1    2    0    0 -0.10090822054E+02 -0.14641821544E+01  0.15801762818E+02  0.18806259364E+02  0.10566000000E+00 0.  1.
        994    1    1    2    0    0  0.87937868729E+01 -0.60956811109E-01  0.32970228276E+01  0.17145741385E+03  0.17120000000E+03 0.  0.
        998    1    1    2    0    0  0.12970351806E+01  0.15251389655E+01  0.14809012106E+04  0.14809363268E+04  0.10000000000E+02 0.  1.
</event>
<event>
 5    1  0.9130022E-009  0.3838958E+03  0.7957747E-01  0.3434369E+00
         13   -1    0    0    0    0  0.00000000000E+00  0.00000000000E+00  0.14999999963E+04  0.15000000000E+04  0.10566000000E+00 0.  1.
        994   -1    0    0    0    0 -0.00000000000E+00 -0.00000000000E+00  0.11368683772E-12  0.17120000000E+03  0.17120000000E+03 0.  0.
         13    1    1    2    0    0 -0.15208989347E+02 -0.15888437848E+02  0.97757706146E+02  0.10020147748E+03  0.10566000000E+00 0.  1.
        994    1    1    2    0    0  0.26842590952E+02  0.18952829568E+02  0.57511409646E+01  0.17441975249E+03  0.17120000000E+03 0.  0.
        998    1    1    2    0    0 -0.11633601605E+02 -0.30643917202E+01  0.13964911492E+04  0.13965787700E+04  0.10000000000E+02 0.  1.
</event>
<event>
 5    1  0.9130022E-009  0.3803407E+03  0.7957747E-01  0.3449676E+00
         13   -1    0    0    0    0  0.00000000000E+00  0.00000000000E+00  0.14999999963E+04  0.15000000000E+04  0.10566000000E+00 0.  1.
        994   -1    0    0    0    0 -0.00000000000E+00 -0.00000000000E+00  0.11368683772E-12  0.17120000000E+03  0.17120000000E+03 0.  0.
         13    1    1    2    0    0 -0.11653806464E+03  0.57099253017E+02  0.74617595012E+03  0.75737705597E+03  0.10566000000E+00 0.  1.
        994    1    1    2    0    0  0.13627714727E+03 -0.52413918383E+02  0.78779407259E+02  0.23839948556E+03  0.17120000000E+03 0.  0.
        998    1    1    2    0    0 -0.19739082634E+02 -0.46853346339E+01  0.67504463890E+03  0.67542345847E+03  0.10000000000E+02 0.  1.
</event>
<event>
 5    1  0.9130022E-009  0.3818303E+03  0.7957747E-01  0.3443227E+00
         13   -1    0    0    0    0  0.00000000000E+00  0.00000000000E+00  0.14999999963E+04  0.15000000000E+04  0.10566000000E+00 0.  1.
        994   -1    0    0    0    0 -0.00000000000E+00 -0.00000000000E+00  0.11368683772E-12  0.17120000000E+03  0.17120000000E+03 0.  0.
         13    1    1    2    0    0  0.13308489408E+02 -0.44658380299E+01  0.28779527620E+02  0.32020805325E+02  0.10566000000E+00 0.  1.
        994    1    1    2    0    0 -0.17080890599E+02  0.18751716585E+01  0.41937979063E+01  0.17211130420E+03  0.17120000000E+03 0.  0.
        998    1    1    2    0    0  0.37724011905E+01  0.25906663713E+01  0.14670266708E+04  0.14670678905E+04  0.10000000000E+02 0.  1.
</event>
<event>
 5    1  0.9130022E-009  0.3806227E+03  0.7957747E-01  0.3448451E+00
         13   -1    0    0    0    0  0.00000000000E+00  0.00000000000E+00  0.14999999963E+04  0.15000000000E+04  0.10566000000E+00 0. -1.
        994   -1    0    0    0    0 -0.00000000000E+00 -0.00000000000E+00  0.11368683772E-12  0.17120000000E+03  0.17120000000E+03 0.  0.
         13    1    1    2    0    0  0.92081640935E+01 -0.14374571493E+02  0.37141553028E+02  0.40876946033E+02  0.10566000000E+00 0. -1.
        994    1    1    2    0    0 -0.11071327918E+02  0.23590012031E+01  0.42467248091E+01  0.17162637868E+03  0.17120000000E+03 0.  0.
        998    1    1    2    0    0  0.18631638248E+01  0.12015570289E+02  0.14586117184E+04  0.14586966753E+04  0.10000000000E+02 0. -1.
</event>
<event>
 5    1  0.9977243E-009  0.3859602E+03  0.7957747E-01  0.3425610E+00
         13   -1    0    0    0    0  0.00000000000E+00  0.00000000000E+00  0.14999999963E+04  0.15000000000E+04  0.10566000000E+00 0. -1.
        994   -1    0    0    0    0 -0.00000000000E+00 -0.00000000000E+00  0.11368683772E-12  0.17120000000E+03  0.17120000000E+03 0.  0.
         13    1    1    2    0    0 -0.10700836615E+02  0.61815530581E+01  0.67978890832E+02  0.69093127482E+02  0.10566000000E+00 0. -1.
        994    1    1    2    0    0 -0.70106684626E+01 -0.26632399009E+02  0.36446239198E+01  0.17343920385E+03  0.17120000000E+03 0.  0.
        998    1    1    2    0    0  0.17711505078E+02  0.20450845951E+02  0.14283764815E+04  0.14286676687E+04  0.10000000000E+02 0. -1.
</event>
<event>
 5    1  0.9130022E-009  0.3729440E+03  0.7957747E-01  0.3482469E+00
         13   -1    0    0    0    0  0.00000000000E+00  0.00000000000E+00  0.14999999963E+04  0.15000000000E+04  0.10566000000E+00 0.  1.
        994   -1    0    0    0    0 -0.00000000000E+00 -0.00000000000E+00  0.11368683772E-12  0.17120000000E+03  0.17120000000E+03 0.  0.
         13    1    1    2    0    0  0.26315059730E+02  0.80121308167E+01  0.45366327925E+02  0.53054608492E+02  0.10566000000E+00 0.  1.
        994    1    1    2    0    0 -0.21081056205E+02 -0.62818324804E+01  0.93963481631E+01  0.17286296222E+03  0.17120000000E+03 0.  0.
        998    1    1    2    0    0 -0.52340035257E+01 -0.17302983362E+01  0.14452373202E+04  0.14452824293E+04  0.10000000000E+02 0.  1.
</event>
<event>
 5    1  0.9130022E-009  0.3822485E+03  0.7957747E-01  0.3441426E+00
         13   -1    0    0    0    0  0.00000000000E+00  0.00000000000E+00  0.14999999963E+04  0.15000000000E+04  0.10566000000E+00 0.  1.
        994   -1    0    0    0    0 -0.00000000000E+00 -0.00000000000E+00  0.11368683772E-12  0.17120000000E+03  0.17120000000E+03 0.  0.
         13    1    1    2    0    0 -0.44066870297E+01  0.17468854519E+02  0.59493917237E+02  0.62162023141E+02  0.10566000000E+00 0.  1.
        994    1    1    2    0    0 -0.43751653709E+01  0.11975938124E+02  0.35420237531E+01  0.17171066099E+03  0.17120000000E+03 0.  0.
        998    1    1    2    0    0  0.87818524007E+01 -0.29444792643E+02  0.14369640553E+04  0.14373273159E+04  0.10000000000E+02 0.  1.
</event>
<event>
 5    1  0.9130022E-009  0.3793153E+03  0.7957747E-01  0.3454145E+00
         13   -1    0    0    0    0  0.00000000000E+00  0.00000000000E+00  0.14999999963E+04  0.15000000000E+04  0.10566000000E+00 0.  1.
        994   -1    0    0    0    0 -0.00000000000E+00 -0.00000000000E+00  0.11368683772E-12  0.17120000000E+03  0.17120000000E+03 0.  0.
         13    1    1    2    0    0  0.11343814047E+02 -0.38900911115E+02  0.16261778835E+03  0.16759033163E+03  0.10566000000E+00 0.  1.
        994    1    1    2    0    0 -0.56535885350E+01  0.41498757292E+02  0.10378833273E+02  0.17655387308E+03  0.17120000000E+03 0.  0.
        998    1    1    2    0    0 -0.56902255121E+01 -0.25978461779E+01  0.13270033747E+04  0.13270557953E+04  0.10000000000E+02 0.  1.
</event>
<event>
 5    1  0.9130022E-009  0.3796676E+03  0.7957747E-01  0.3452607E+00
         13   -1    0    0    0    0  0.00000000000E+00  0.00000000000E+00  0.14999999963E+04  0.15000000000E+04  0.10566000000E+00 0.  1.
        994   -1    0    0    0    0 -0.00000000000E+00 -0.00000000000E+00  0.11368683772E-12  0.17120000000E+03  0.17120000000E+03 0.  0.
         13    1    1    2    0    0 -0.24044100319E+02  0.12566316947E+02  0.87860598808E+02  0.91953939931E+02  0.10566000000E+00 0.  1.
        994    1    1    2    0    0  0.85281082178E+01  0.16639039896E+00  0.45445428846E+01  0.17147259019E+03  0.17120000000E+03 0.  0.
        998    1    1    2    0    0  0.15515992102E+02 -0.12732707345E+02  0.14075948546E+04  0.14077734699E+04  0.10000000000E+02 0.  1.
</event>
<event>
 5    1  0.9130022E-009  0.3764164E+03  0.7957747E-01  0.3466912E+00
         13   -1    0    0    0    0  0.00000000000E+00  0.00000000000E+00  0.14999999963E+04  0.15000000000E+04  0.10566000000E+00 0.  1.
        994   -1    0    0    0    0 -0.00000000000E+00 -0.00000000000E+00  0.11368683772E-12  0.17120000000E+03  0.17120000000E+03 0.  0.
         13    1    1    2    0    0 -0.77248705868E+02  0.10637608799E+03  0.75601814017E+03  0.76736345631E+03  0.10566000000E+00 0.  1.
        994    1    1    2    0    0  0.81986568155E+02 -0.95196134902E+02  0.61368758891E+02  0.22104222679E+03  0.17120000000E+03 0.  0.
        998    1    1    2    0    0 -0.47378622865E+01 -0.11179953083E+02  0.68261309722E+03  0.68279431689E+03  0.10000000000E+02 0. -1.
</event>
<event>
 5    1  0.9130022E-009  0.3819433E+03  0.7957747E-01  0.3442740E+00
         13   -1    0    0    0    0  0.00000000000E+00  0.00000000000E+00  0.14999999963E+04  0.15000000000E+04  0.10566000000E+00 0. -1.
        994   -1    0    0    0    0 -0.00000000000E+00 -0.00000000000E+00  0.11368683772E-12  0.17120000000E+03  0.17120000000E+03 0.  0.
         13    1    1    2    0    0 -0.52658349387E+02 -0.17156035956E+02  0.77729786674E+02  0.95441931196E+02  0.10566000000E+00 0. -1.
        994    1    1    2    0    0  0.53129447142E+02  0.21448227069E+02  0.29478766821E+02  0.18292403421E+03  0.17120000000E+03 0.  0.
        998    1    1    2    0    0 -0.47109775455E+00 -0.42921911136E+01  0.13927914428E+04  0.13928340346E+04  0.10000000000E+02 0. -1.
</event>
<event>
 5    1  0.9130022E-009  0.3849093E+03  0.7957747E-01  0.3430057E+00
         13   -1    0    0    0    0  0.00000000000E+00  0.00000000000E+00  0.14999999963E+04  0.15000000000E+04  0.10566000000E+00 0. -1.
        994   -1    0    0    0    0 -0.00000000000E+00 -0.00000000000E+00  0.11368683772E-12  0.17120000000E+03  0.17120000000E+03 0.  0.
         13    1    1    2    0    0 -0.17237509168E+02 -0.73218487937E+01  0.10796532366E+03  0.10957765953E+03  0.10566000000E+00 0. -1.
        994    1    1    2    0    0  0.11944277090E+02 -0.68926765889E+01  0.23010120244E+01  0.17176993160E+03  0.17120000000E+03 0.  0.
        998    1    1    2    0    0  0.52932320786E+01  0.14214525383E+02  0.13897336606E+04  0.13898524089E+04  0.10000000000E+02 0. -1.
</event>
<event>
 5    1  0.9130022E-009  0.3768571E+03  0.7957747E-01  0.3464959E+00
         13   -1    0    0    0    0  0.00000000000E+00  0.00000000000E+00  0.14999999963E+04  0.15000000000E+04  0.10566000000E+00 0.  1.
        994   -1    0    0    0    0 -0.00000000000E+00 -0.00000000000E+00  0.11368683772E-12  0.17120000000E+03  0.17120000000E+03 0.  0.
         13    1    1    2    0    0 -0.57240926513E+02 -0.50745413978E+02  0.38964305340E+03  0.39708102565E+03  0.10566000000E+00 0.  1.
        994    1    1    2    0    0  0.46999278463E+02  0.57169512400E+02  0.24460417103E+02  0.18810911017E+03  0.17120000000E+03 0.  0.
        998    1    1    2    0    0  0.10241648050E+02 -0.64240984212E+01  0.10858965258E+04  0.10860098642E+04  0.10000000000E+02 0.  1.
</event>
<event>
 5    1  0.9130022E-009  0.3814289E+03  0.7957747E-01  0.3444960E+00
         13   -1    0    0    0    0  0.00000000000E+00  0.00000000000E+00  0.14999999963E+04  0.15000000000E+04  0.10566000000E+00 0.  1.
        994   -1    0    0    0    0 -0.00000000000E+00 -0.00000000000E+00  0.11368683772E-12  0.17120000000E+03  0.17120000000E+03 0.  0.
         13    1    1    2    0    0 -0.41341175819E+01 -0.28810580807E+02  0.10990471447E+03  0.11369343834E+03  0.10566000000E+00 0.  1.
        994    1    1    2    0    0  0.30077908197E+01  0.36947248871E+02  0.79991635470E+01  0.17534985778E+03  0.17120000000E+03 0.  0.
        998    1    1    2    0    0  0.11263267622E+01 -0.81366680643E+01  0.13820961183E+04  0.13821567039E+04  0.10000000000E+02 0.  1.
</event>
<event>
 5    1  0.9130022E-009  0.3827238E+03  0.7957747E-01  0.3439384E+00
         13   -1    0    0    0    0  0.00000000000E+00  0.00000000000E+00  0.14999999963E+04  0.15000000000E+04  0.10566000000E+00 0. -1.
        994   -1    0    0    0    0 -0.00000000000E+00 -0.00000000000E+00  0.11368683772E-12  0.17120000000E+03  0.17120000000E+03 0.  0.
         13    1    1    2    0    0 -0.82696664202E+01 -0.19769794906E+02  0.77696706237E+02  0.80597900081E+02  0.10566000000E+00 0. -1.
        994    1    1    2    0    0  0.12083340377E+02  0.21037411390E+02  0.47169218639E+01  0.17297476447E+03  0.17120000000E+03 0.  0.
        998    1    1    2    0    0 -0.38136739566E+01 -0.12676164843E+01  0.14175863682E+04  0.14176273354E+04  0.10000000000E+02 0. -1.
</event>
<event>
 5    1  0.9130022E-009  0.3804032E+03  0.7957747E-01  0.3449405E+00
         13   -1    0    0    0    0  0.00000000000E+00  0.00000000000E+00  0.14999999963E+04  0.15000000000E+04  0.10566000000E+00 0. -1.
        994   -1    0    0    0    0 -0.00000000000E+00 -0.00000000000E+00  0.11368683772E-12  0.17120000000E+03  0.17120000000E+03 0.  0.
         13    1    1    2    0    0  0.33236286999E+01  0.35206153267E+02  0.16206709264E+03  0.16588029845E+03  0.10566000000E+00 0. -1.
        994    1    1    2    0    0  0.29807458967E+01 -0.17132134081E+02  0.49399279746E+01  0.17215178696E+03  0.17120000000E+03 0.  0.
        998    1    1    2    0    0 -0.63043745966E+01 -0.18074019186E+02  0.13329929757E+04  0.13331679146E+04  0.10000000000E+02 0. -1.
</event>
<event>
 5    1  0.9130022E-009  0.3790233E+03  0.7957747E-01  0.3455422E+00
         13   -1    0    0    0    0  0.00000000000E+00  0.00000000000E+00  0.14999999963E+04  0.15000000000E+04  0.10566000000E+00 0. -1.
        994   -1    0    0    0    0 -0.00000000000E+00 -0.00000000000E+00  0.11368683772E-12  0.17120000000E+03  0.17120000000E+03 0.  0.
         13    1    1    2    0    0 -0.19724117129E+02 -0.37685875583E+02  0.51461178902E+02  0.66764737047E+02  0.10566000000E+00 0. -1.
        994    1    1    2    0    0  0.80231024570E+01  0.29436057499E+02  0.19159921381E+02  0.17494969060E+03  0.17120000000E+03 0.  0.
        998    1    1    2    0    0  0.11701014672E+02  0.82498180839E+01  0.14293788960E+04  0.14294855724E+04  0.10000000000E+02 0. -1.
</event>
<event>
 5    1  0.9130022E-009  0.3685835E+03  0.7957747E-01  0.3502426E+00
         13   -1    0    0    0    0  0.00000000000E+00  0.00000000000E+00  0.14999999963E+04  0.15000000000E+04  0.10566000000E+00 0.  1.
        994   -1    0    0    0    0 -0.00000000000E+00 -0.00000000000E+00  0.11368683772E-12  0.17120000000E+03  0.17120000000E+03 0.  0.
         13    1    1    2    0    0  0.56232996531E+02  0.69712842059E+02  0.45133503892E+03  0.46013623936E+03  0.10566000000E+00 0.  1.
        994    1    1    2    0    0 -0.82877915483E+01 -0.38310006798E+02  0.15555289001E+02  0.17631718897E+03  0.17120000000E+03 0.  0.
        998    1    1    2    0    0 -0.47945204983E+02 -0.31402835260E+02  0.10331096684E+04  0.10347465717E+04  0.10000000000E+02 0.  1.
</event>
<event>
 5    1  0.9130022E-009  0.3832731E+03  0.7957747E-01  0.3437029E+00
         13   -1    0    0    0    0  0.00000000000E+00  0.00000000000E+00  0.14999999963E+04  0.15000000000E+04  0.10566000000E+00 0. -1.
        994   -1    0    0    0    0 -0.00000000000E+00 -0.00000000000E+00  0.11368683772E-12  0.17120000000E+03  0.17120000000E+03 0.  0.
         13    1    1    2    0    0  0.25982004238E+02  0.12340511742E+02  0.15685660818E+03  0.15947212756E+03  0.10566000000E+00 0. -1.
        994    1    1    2    0    0 -0.17564010479E+02 -0.18616276923E+02  0.46593192919E+01  0.17316526640E+03  0.17120000000E+03 0.  0.
        998    1    1    2    0    0 -0.84179937587E+01  0.62757651814E+01  0.13384840688E+04  0.13385626060E+04  0.10000000000E+02 0. -1.
</event>
<event>
 5    1  0.9130022E-009  0.3997652E+03  0.7957747E-01  0.3369367E+00
         13   -1    0    0    0    0  0.00000000000E+00  0.00000000000E+00  0.14999999963E+04  0.15000000000E+04  0.10566000000E+00 0.  1.
        994   -1    0    0    0    0 -0.00000000000E+00 -0.00000000000E+00  0.11368683772E-12  0.17120000000E+03  0.17120000000E+03 0.  0.
         13    1    1    2    0    0  0.75217808539E+01 -0.44410731961E+02  0.27410572945E+02  0.52727990420E+02  0.10566000000E+00 0.  1.
        994    1    1    2    0    0 -0.15302683097E+03 -0.56415365297E+02  0.14135636674E+03  0.27548315168E+03  0.17120000000E+03 0.  0.
        998    1    1    2    0    0  0.14550505012E+03  0.10082609726E+03  0.13312330566E+04  0.13429888579E+04  0.10000000000E+02 0.  1.
</event>
<event>
 5    1  0.9130022E-009  0.3693531E+03  0.7957747E-01  0.3498869E+00
         13   -1    0    0    0    0  0.00000000000E+00  0.00000000000E+00  0.14999999963E+04  0.15000000000E+04  0.10566000000E+00 0.  1.
        994   -1    0    0    0    0 -0.00000000000E+00 -0.00000000000E+00  0.11368683772E-12  0.17120000000E+03  0.17120000000E+03 0.  0.
         13    1    1    2    0    0  0.37367382249E+01  0.43715065566E+02  0.10325165505E+03  0.11218683347E+03  0.10566000000E+00 0.  1.
        994    1    1    2    0    0 -0.43380327659E+01 -0.10022897832E+02  0.10021028527E+02  0.17184044350E+03  0.17120000000E+03 0.  0.
        998    1    1    2    0    0  0.60129454098E+00 -0.33692167735E+02  0.13867273127E+04  0.13871727230E+04  0.10000000000E+02 0.  1.
</event>
<event>
 5    1  0.9130022E-009  0.3853514E+03  0.7957747E-01  0.3428183E+00
         13   -1    0    0    0    0  0.00000000000E+00  0.00000000000E+00  0.14999999963E+04  0.15000000000E+04  0.10566000000E+00 0. -1.
        994   -1    0    0    0    0 -0.00000000000E+00 -0.00000000000E+00  0.11368683772E-12  0.17120000000E+03  0.17120000000E+03 0.  0.
         13    1    1    2    0    0 -0.10619392136E+02  0.53669253224E+01  0.47951521078E+02  0.49405818630E+02  0.10566000000E+00 0. -1.
        994    1    1    2    0    0  0.10434480398E+02 -0.33921388441E+01  0.18513486070E+01  0.17156122079E+03  0.17120000000E+03 0.  0.
        998    1    1    2    0    0  0.18491173822E+00 -0.19747864783E+01  0.14501971266E+04  0.14502329606E+04  0.10000000000E+02 0. -1.
</event>
<event>
 5    1  0.9130022E-009  0.3800063E+03  0.7957747E-01  0.3451131E+00
         13   -1    0    0    0    0  0.00000000000E+00  0.00000000000E+00  0.14999999963E+04  0.15000000000E+04  0.10566000000E+00 0. -1.
        994   -1    0    0    0    0 -0.00000000000E+00 -0.00000000000E+00  0.11368683772E-12  0.17120000000E+03  0.17120000000E+03 0.  0.
         13    1    1    2    0    0  0.10837526596E+02  0.20407947814E+02  0.62463232030E+02  0.66600321593E+02  0.10566000000E+00 0. -1.
        994    1    1    2    0    0 -0.60889442636E+01 -0.16432127798E+02  0.51571745599E+01  0.17217179361E+03  0.17120000000E+03 0.  0.
        998    1    1    2    0    0 -0.47485823325E+01 -0.39758200162E+01  0.14323795897E+04  0.14324278848E+04  0.10000000000E+02 0. -1.
</event>
<event>
 5    1  0.9130022E-009  0.3743448E+03  0.7957747E-01  0.3476158E+00
         13   -1    0    0    0    0  0.00000000000E+00  0.00000000000E+00  0.14999999963E+04  0.15000000000E+04  0.10566000000E+00 0.  1.
        994   -1    0    0    0    0 -0.00000000000E+00 -0.00000000000E+00  0.11368683772E-12  0.17120000000E+03  0.17120000000E+03 0.  0.
         13    1    1    2    0    0 -0.15710463934E+02 -0.91597617481E+02  0.29499750263E+03  0.30929028424E+03  0.10566000000E+00 0.  1.
        994    1    1    2    0    0 -0.21538898705E+02  0.75791647079E+02  0.35636614687E+02  0.19180121540E+03  0.17120000000E+03 0.  0.
        998    1    1    2    0    0  0.37249362639E+02  0.15805970401E+02  0.11693658790E+04  0.11701085004E+04  0.10000000000E+02 0.  1.
</event>
<event>
 5    1  0.1041171E-008  0.3852231E+03  0.7957747E-01  0.3428726E+00
         13   -1    0    0    0    0  0.00000000000E+00  0.00000000000E+00  0.14999999963E+04  0.15000000000E+04  0.10566000000E+00 0.  1.
        994   -1    0    0    0    0 -0.00000000000E+00 -0.00000000000E+00  0.11368683772E-12  0.17120000000E+03  0.17120000000E+03 0.  0.
         13    1    1    2    0    0  0.38985944701E+01 -0.10250767506E+02  0.38534720982E+02  0.40065111487E+02  0.10566000000E+00 0.  1.
        994    1    1    2    0    0 -0.40505983276E+01  0.11858955632E+02  0.20356484640E+01  0.17167010817E+03  0.17120000000E+03 0.  0.
        998    1    1    2    0    0  0.15200385752E+00 -0.16081881254E+01  0.14594296268E+04  0.14594647803E+04  0.10000000000E+02 0.  1.
</event>
<event>
 5    1  0.9130022E-009  0.3782235E+03  0.7957747E-01  0.3458931E+00
         13   -1    0    0    0    0  0.00000000000E+00  0.00000000000E+00  0.14999999963E+04  0.15000000000E+04  0.10566000000E+00 0. -1.
        994   -1    0    0    0    0 -0.00000000000E+00 -0.00000000000E+00  0.11368683772E-12  0.17120000000E+03  0.17120000000E+03 0.  0.
         13    1    1    2    0    0 -0.29918767526E+02 -0.16055046173E+02  0.11865454876E+03  0.12341722029E+03  0.10566000000E+00 0. -1.
        994    1    1    2    0    0  0.17525526873E+02 -0.97791937623E+01  0.63882010036E+01  0.17249065434E+03  0.17120000000E+03 0.  0.
        998    1    1    2    0    0  0.12393240653E+02  0.25834239935E+02  0.13749572465E+04  0.13752921254E+04  0.10000000000E+02 0. -1.
</event>
<event>
 5    1  0.9130022E-009  0.3841222E+03  0.7957747E-01  0.3433403E+00
         13   -1    0    0    0    0  0.00000000000E+00  0.00000000000E+00  0.14999999963E+04  0.15000000000E+04  0.10566000000E+00 0.  1.
        994   -1    0    0    0    0 -0.00000000000E+00 -0.00000000000E+00  0.11368683772E-12  0.17120000000E+03  0.17120000000E+03 0.  0.
         13    1    1    2    0    0 -0.82323933448E+01  0.15368453011E+02  0.74660532565E+02  0.76669211128E+02  0.10566000000E+00 0.  1.
        994    1    1    2    0    0  0.40149685491E+01 -0.68657121012E+01  0.22752106391E+01  0.17139975075E+03  0.17120000000E+03 0.  0.
        998    1    1    2    0    0  0.42174247957E+01 -0.85027409095E+01  0.14230642531E+04  0.14231310381E+04  0.10000000000E+02 0.  1.
</event>
<event>
 5    1  0.9130022E-009  0.3695731E+03  0.7957747E-01  0.3497855E+00
         13   -1    0    0    0    0  0.00000000000E+00  0.00000000000E+00  0.14999999963E+04  0.15000000000E+04  0.10566000000E+00 0.  1.
        994   -1    0    0    0    0 -0.00000000000E+00 -0.00000000000E+00  0.11368683772E-12  0.17120000000E+03  0.17120000000E+03 0.  0.
         13    1    1    2    0    0  0.11887834341E+01  0.25965482869E+02  0.30456242523E+02  0.40040147094E+02  0.10566000000E+00 0.  1.
        994    1    1    2    0    0  0.38446951527E+02  0.29703940241E+02  0.18998972295E+02  0.17897176620E+03  0.17120000000E+03 0.  0.
        998    1    1    2    0    0 -0.39635734961E+02 -0.55669423110E+02  0.14505447815E+04  0.14521880867E+04  0.10000000000E+02 0.  1.
</event>
<event>
 5    1  0.9130022E-009  0.3825157E+03  0.7957747E-01  0.3440277E+00
         13   -1    0    0    0    0  0.00000000000E+00  0.00000000000E+00  0.14999999963E+04  0.15000000000E+04  0.10566000000E+00 0.  1.
        994   -1    0    0    0    0 -0.00000000000E+00 -0.00000000000E+00  0.11368683772E-12  0.17120000000E+03  0.17120000000E+03 0.  0.
         13    1    1    2    0    0  0.12165148889E+02  0.81376984977E+01  0.36580600308E+02  0.39400056691E+02  0.10566000000E+00 0.  1.
        994    1    1    2    0    0 -0.93456724579E+01 -0.87432326211E+00  0.31607350284E+01  0.17148625683E+03  0.17120000000E+03 0.  0.
        998    1    1    2    0    0 -0.28194764313E+01 -0.72633752356E+01  0.14602586609E+04  0.14603136865E+04  0.10000000000E+02 0.  1.
</event>
<event>
 5    1  0.9130022E-009  0.3805172E+03  0.7957747E-01  0.3448909E+00
         13   -1    0    0    0    0  0.00000000000E+00  0.00000000000E+00  0.14999999963E+04  0.15000000000E+04  0.10566000000E+00 0. -1.
        994   -1    0    0    0    0 -0.00000000000E+00 -0.00000000000E+00  0.11368683772E-12  0.17120000000E+03  0.17120000000E+03 0.  0.
         13    1    1    2    0    0  0.80994220879E+01 -0.10703776888E+02  0.20392089547E+02  0.24413519983E+02  0.10566000000E+00 0. -1.
        994    1    1    2    0    0 -0.15601574329E+02  0.27406219304E+02  0.71982822568E+01  0.17422905970E+03  0.17120000000E+03 0.  0.
        998    1    1    2    0    0  0.75021522411E+01 -0.16702442416E+02  0.14724096245E+04  0.14725574203E+04  0.10000000000E+02 0. -1.
</event>
<event>
 5    1  0.9130022E-009  0.3729446E+03  0.7957747E-01  0.3482467E+00
         13   -1    0    0    0    0  0.00000000000E+00  0.00000000000E+00  0.14999999963E+04  0.15000000000E+04  0.10566000000E+00 0.  1.
        994   -1    0    0    0    0 -0.00000000000E+00 -0.00000000000E+00  0.11368683772E-12  0.17120000000E+03  0.17120000000E+03 0.  0.
         13    1    1    2    0    0 -0.19105932410E+02 -0.10177432044E+02  0.27517123667E+02  0.35011712829E+02  0.10566000000E+00 0.  1.
        994    1    1    2    0    0  0.54524703766E+01  0.77003287693E+01  0.80428034772E+01  0.17164833580E+03  0.17120000000E+03 0.  0.
        998    1    1    2    0    0  0.13653462033E+02  0.24771032745E+01  0.14644400691E+04  0.14645399514E+04  0.10000000000E+02 0.  1.
</event>
<event>
 5    1  0.9130022E-009  0.3690785E+03  0.7957747E-01  0.3500137E+00
         13   -1    0    0    0    0  0.00000000000E+00  0.00000000000E+00  0.14999999963E+04  0.15000000000E+04  0.10566000000E+00 0.  1.
        994   -1    0    0    0    0 -0.00000000000E+00 -0.00000000000E+00  0.11368683772E-12  0.17120000000E+03  0.17120000000E+03 0.  0.
         13    1    1    2    0    0 -0.43628741019E+02 -0.53088236742E+02  0.20729590376E+03  0.21838825702E+03  0.10566000000E+00 0.  1.
        994    1    1    2    0    0  0.39087783567E+02  0.38694577657E+02  0.21069541909E+02  0.18104831057E+03  0.17120000000E+03 0.  0.
        998    1    1    2    0    0  0.45409574522E+01  0.14393659085E+02  0.12716345506E+04  0.12717634324E+04  0.10000000000E+02 0.  1.
</event>
<event>
 5    1  0.9130022E-009  0.3794743E+03  0.7957747E-01  0.3453451E+00
         13   -1    0    0    0    0  0.00000000000E+00  0.00000000000E+00  0.14999999963E+04  0.15000000000E+04  0.10566000000E+00 0. -1.
        994   -1    0    0    0    0 -0.00000000000E+00 -0.00000000000E+00  0.11368683772E-12  0.17120000000E+03  0.17120000000E+03 0.  0.
         13    1    1    2    0    0 -0.45706082799E+02  0.49743655156E+01  0.27743675387E+03  0.28122047201E+03  0.10566000000E+00 0. -1.
        994    1    1    2    0    0  0.87783444420E+01 -0.72305078569E+01  0.48319869195E+01  0.17164535436E+03  0.17120000000E+03 0.  0.
        998    1    1    2    0    0  0.36927738357E+02  0.22561423412E+01  0.12177312555E+04  0.12183341736E+04  0.10000000000E+02 0. -1.
</event>
<event>
 5    1  0.9130022E-009  0.3767736E+03  0.7957747E-01  0.3465328E+00
         13   -1    0    0    0    0  0.00000000000E+00  0.00000000000E+00  0.14999999963E+04  0.15000000000E+04  0.10566000000E+00 0. -1.
        994   -1    0    0    0    0 -0.00000000000E+00 -0.00000000000E+00  0.11368683772E-12  0.17120000000E+03  0.17120000000E+03 0.  0.
         13    1    1    2    0    0  0.42612613199E+02 -0.26401749737E+02  0.22437213908E+03  0.22990379543E+03  0.10566000000E+00 0. -1.
        994    1    1    2    0    0 -0.29050991526E+01  0.42091752179E+02  0.11809624311E+02  0.17671746498E+03  0.17120000000E+03 0.  0.
        998    1    1    2    0    0 -0.39707514046E+02 -0.15690002442E+02  0.12638182329E+04  0.12645787396E+04  0.10000000000E+02 0. -1.
</event>
<event>
 5    1  0.9130022E-009  0.3825111E+03  0.7957747E-01  0.3440297E+00
         13   -1    0    0    0    0  0.00000000000E+00  0.00000000000E+00  0.14999999963E+04  0.15000000000E+04  0.10566000000E+00 0.  1.
        994   -1    0    0    0    0 -0.00000000000E+00 -0.00000000000E+00  0.11368683772E-12  0.17120000000E+03  0.17120000000E+03 0.  0.
         13    1    1    2    0    0  0.15622125945E+02  0.10998648970E+02  0.58628834720E+02  0.61663380728E+02  0.10566000000E+00 0.  1.
        994    1    1    2    0    0 -0.21527153382E+02 -0.15821488482E+02  0.52408106568E+01  0.17335121553E+03  0.17120000000E+03 0.  0.
        998    1    1    2    0    0  0.59050274371E+01  0.48228395128E+01  0.14361303509E+04  0.14361854037E+04  0.10000000000E+02 0.  1.
</event>
<event>
 5    1  0.9130022E-009  0.3789693E+03  0.7957747E-01  0.3455659E+00
         13   -1    0    0    0    0  0.00000000000E+00  0.00000000000E+00  0.14999999963E+04  0.15000000000E+04  0.10566000000E+00 0.  1.
        994   -1    0    0    0    0 -0.00000000000E+00 -0.00000000000E+00  0.11368683772E-12  0.17120000000E+03  0.17120000000E+03 0.  0.
         13    1    1    2    0    0 -0.11672205589E+02  0.12092187290E+02  0.28101025299E+02  0.32743551482E+02  0.10566000000E+00 0.  1.
        994    1    1    2    0    0  0.12834947400E+02 -0.95767331127E+01  0.55150045256E+01  0.17203576653E+03  0.17120000000E+03 0.  0.
        998    1    1    2    0    0 -0.11627418115E+01 -0.25154541770E+01  0.14663839665E+04  0.14664206820E+04  0.10000000000E+02 0.  1.
</event>
<event>
 5    1  0.9130022E-009  0.3833259E+03  0.7957747E-01  0.3436803E+00
         13   -1    0    0    0    0  0.00000000000E+00  0.00000000000E+00  0.14999999963E+04  0.15000000000E+04  0.10566000000E+00 0. -1.
        994   -1    0    0    0    0 -0.00000000000E+00 -0.00000000000E+00  0.11368683772E-12  0.17120000000E+03  0.17120000000E+03 0.  0.
         13    1    1    2    0    0  0.20979291671E+01 -0.13220549103E+02  0.35444298994E+02  0.37887909953E+02  0.10566000000E+00 0. -1.
        994    1    1    2    0    0 -0.16156424512E+01  0.10091475342E+02  0.28090194871E+01  0.17152777841E+03  0.17120000000E+03 0.  0.
        998    1    1    2    0    0 -0.48228671586E+00  0.31290737606E+01  0.14617466778E+04  0.14617843116E+04  0.10000000000E+02 0. -1.
</event>
<event>
 5    1  0.9130022E-009  0.3785088E+03  0.7957747E-01  0.3457677E+00
         13   -1    0    0    0    0  0.00000000000E+00  0.00000000000E+00  0.14999999963E+04  0.15000000000E+04  0.10566000000E+00 0. -1.
        994   -1    0    0    0    0 -0.00000000000E+00 -0.00000000000E+00  0.11368683772E-12  0.17120000000E+03  0.17120000000E+03 0.  0.
         13    1    1    2    0    0 -0.21635191241E+02  0.60047065646E+02  0.29409240157E+03  0.30093867053E+03  0.10566000000E+00 0. -1.
        994    1    1    2    0    0  0.25560624863E+02 -0.74521251712E+02  0.26030615779E+02  0.19024667003E+03  0.17120000000E+03 0.  0.
        998    1    1    2    0    0 -0.39254336222E+01  0.14474186066E+02  0.11798769789E+04  0.11800146594E+04  0.10000000000E+02 0. -1.
</event>
<event>
 5    1  0.9130022E-009  0.3801327E+03  0.7957747E-01  0.3450581E+00
         13   -1    0    0    0    0  0.00000000000E+00  0.00000000000E+00  0.14999999963E+04  0.15000000000E+04  0.10566000000E+00 0.  1.
        994   -1    0    0    0    0 -0.00000000000E+00 -0.00000000000E+00  0.11368683772E-12  0.17120000000E+03  0.17120000000E+03 0.  0.
         13    1    1    2    0    0  0.13015443107E+02  0.52847487698E+01  0.22180520283E+02  0.26254846655E+02  0.10566000000E+00 0.  1.
        994    1    1    2    0    0 -0.16186511288E+02 -0.37541905305E+01  0.49892940785E+01  0.17207681468E+03  0.17120000000E+03 0.  0.
        998    1    1    2    0    0  0.31710681810E+01 -0.15305582393E+01  0.14728301819E+04  0.14728683387E+04  0.10000000000E+02 0.  1.
</event>
<event>
 5    1  0.9130022E-009  0.3826888E+03  0.7957747E-01  0.3439534E+00
         13   -1    0    0    0    0  0.00000000000E+00  0.00000000000E+00  0.14999999963E+04  0.15000000000E+04  0.10566000000E+00 0. -1.
        994   -1    0    0    0    0 -0.00000000000E+00 -0.00000000000E+00  0.11368683772E-12  0.17120000000E+03  0.17120000000E+03 0.  0.
         13    1    1    2    0    0 -0.72845225352E+01 -0.69896217152E+01  0.17003039134E+02  0.19774569126E+02  0.10566000000E+00 0. -1.
        994    1    1    2    0    0  0.77898589912E+01  0.88471483454E+01  0.32425427123E+01  0.17163597531E+03  0.17120000000E+03 0.  0.
        998    1    1    2    0    0 -0.50533645605E+00 -0.18575266302E+01  0.14797544144E+04  0.14797894556E+04  0.10000000000E+02 0. -1.
</event>
<event>
 5    1  0.9130022E-009  0.3799779E+03  0.7957747E-01  0.3451255E+00
         13   -1    0    0    0    0  0.00000000000E+00  0.00000000000E+00  0.14999999963E+04  0.15000000000E+04  0.10566000000E+00 0.  1.
        994   -1    0    0    0    0 -0.00000000000E+00 -0.00000000000E+00  0.11368683772E-12  0.17120000000E+03  0.17120000000E+03 0.  0.
         13    1    1    2    0    0 -0.13532090625E+02  0.20998477273E+01  0.20573827364E+02  0.24714780468E+02  0.10566000000E+00 0.  1.
        994    1    1    2    0    0  0.15238698566E+02 -0.25427218599E+01  0.49426339083E+01  0.17196672061E+03  0.17120000000E+03 0.  0.
        998    1    1    2    0    0 -0.17066079413E+01  0.44287413253E+00  0.14744835350E+04  0.14745184989E+04  0.10000000000E+02 0.  1.
</event>
<event>
 5    1  0.9130022E-009  0.3842972E+03  0.7957747E-01  0.3432658E+00
         13   -1    0    0    0    0  0.00000000000E+00  0.00000000000E+00  0.14999999963E+04  0.15000000000E+04  0.10566000000E+00 0.  1.
        994   -1    0    0    0    0 -0.00000000000E+00 -0.00000000000E+00  0.11368683772E-12  0.17120000000E+03  0.17120000000E+03 0.  0.
         13    1    1    2    0    0 -0.21805287969E+01 -0.14429968934E+02  0.54275262598E+02  0.56203149408E+02  0.10566000000E+00 0.  1.
        994    1    1    2    0    0  0.53857304486E+01  0.60714123590E+01  0.21966166863E+01  0.17140633963E+03  0.17120000000E+03 0.  0.
        998    1    1    2    0    0 -0.32052016517E+01  0.83585565754E+01  0.14435281170E+04  0.14435905110E+04  0.10000000000E+02 0.  1.
</event>
<event>
 5    1  0.9130022E-009  0.3810888E+03  0.7957747E-01  0.3446431E+00
         13   -1    0    0    0    0  0.00000000000E+00  0.00000000000E+00  0.14999999963E+04  0.15000000000E+04  0.10566000000E+00 0. -1.
        994   -1    0    0    0    0 -0.00000000000E+00 -0.00000000000E+00  0.11368683772E-12  0.17120000000E+03  0.17120000000E+03 0.  0.
         13    1    1    2    0    0  0.31329025891E+02 -0.19147934106E+02  0.20421106718E+03  0.20748571605E+03  0.10566000000E+00 0. -1.
        994    1    1    2    0    0 -0.95125548337E+01  0.42069170276E+01  0.39449680753E+01  0.17156103760E+03  0.17120000000E+03 0.  0.
        998    1    1    2    0    0 -0.21816471057E+02  0.14941017079E+02  0.12918439610E+04  0.12921532463E+04  0.10000000000E+02 0. -1.
</event>
<event>
 5    1  0.9130022E-009  0.3687401E+03  0.7957747E-01  0.3501701E+00
         13   -1    0    0    0    0  0.00000000000E+00  0.00000000000E+00  0.14999999963E+04  0.15000000000E+04  0.10566000000E+00 0. -1.
        994   -1    0    0    0    0 -0.00000000000E+00 -0.00000000000E+00  0.11368683772E-12  0.17120000000E+03  0.17120000000E+03 0.  0.
         13    1    1    2    0    0 -0.13156370800E+02 -0.65522877336E+01  0.63236426132E+01  0.16000693332E+02  0.10566000000E+00 0. -1.
        994    1    1    2    0    0  0.13885401483E+02  0.34194590813E+01  0.10639605586E+02  0.17212535630E+03  0.17120000000E+03 0.  0.
        998    1    1    2    0    0 -0.72903068255E+00  0.31328286523E+01  0.14830367481E+04  0.14830739504E+04  0.10000000000E+02 0. -1.
</event>
<event>
 5    1  0.9130022E-009  0.3852388E+03  0.7957747E-01  0.3428660E+00
         13   -1    0    0    0    0  0.00000000000E+00  0.00000000000E+00  0.14999999963E+04  0.15000000000E+04  0.10566000000E+00 0.  1.
        994   -1    0    0    0    0 -0.00000000000E+00 -0.00000000000E+00  0.11368683772E-12  0.17120000000E+03  0.17120000000E+03 0.  0.
         13    1    1    2    0    0 -0.16864814631E+02 -0.22036015054E+01  0.92875536898E+02  0.94420095055E+02  0.10566000000E+00 0.  1.
        994    1    1    2    0    0  0.14841491201E+02  0.27649380198E+01  0.22609346347E+01  0.17187922088E+03  0.17120000000E+03 0.  0.
        998    1    1    2    0    0  0.20233234297E+01 -0.56133651441E+00  0.14048635247E+04  0.14049006841E+04  0.10000000000E+02 0.  1.
</event>
<event>
 5    1  0.9130022E-009  0.3696809E+03  0.7957747E-01  0.3497359E+00
         13   -1    0    0    0    0  0.00000000000E+00  0.00000000000E+00  0.14999999963E+04  0.15000000000E+04  0.10566000000E+00 0.  1.
        994   -1    0    0    0    0 -0.00000000000E+00 -0.00000000000E+00  0.11368683772E-12  0.17120000000E+03  0.17120000000E+03 0.  0.
         13    1    1    2    0    0 -0.17793377720E+02 -0.61510029303E+01  0.15483085859E+02  0.24375730543E+02  0.10566000000E+00 0.  1.
        994    1    1    2    0    0 -0.16013521978E+02  0.13676518026E+02  0.10972521557E+02  0.17283898941E+03  0.17120000000E+03 0.  0.
        998    1    1    2    0    0  0.33806899698E+02 -0.75255150956E+01  0.14735443889E+04  0.14739852800E+04  0.10000000000E+02 0.  1.
</event>
<event>
 5    1  0.9130022E-009  0.3835886E+03  0.7957747E-01  0.3435680E+00
         13   -1    0    0    0    0  0.00000000000E+00  0.00000000000E+00  0.14999999963E+04  0.15000000000E+04  0.10566000000E+00 0.  1.
        994   -1    0    0    0    0 -0.00000000000E+00 -0.00000000000E+00  0.11368683772E-12  0.17120000000E+03  0.17120000000E+03 0.  0.
         13    1    1    2    0    0  0.16776829148E+02  0.79522018299E+01  0.69199484781E+02  0.71646907597E+02  0.10566000000E+00 0.  1.
        994    1    1    2    0    0 -0.20796646017E+02 -0.86110105646E+01  0.40081520766E+01  0.17271987515E+03  0.17120000000E+03 0.  0.
        998    1    1    2    0    0  0.40198168685E+01  0.65880873471E+00  0.14267923594E+04  0.14268332173E+04  0.10000000000E+02 0.  1.
</event>
<event>
 5    1  0.9130022E-009  0.3733609E+03  0.7957747E-01  0.3480586E+00
         13   -1    0    0    0    0  0.00000000000E+00  0.00000000000E+00  0.14999999963E+04  0.15000000000E+04  0.10566000000E+00 0.  1.
        994   -1    0    0    0    0 -0.00000000000E+00 -0.00000000000E+00  0.11368683772E-12  0.17120000000E+03  0.17120000000E+03 0.  0.
         13    1    1    2    0    0 -0.14362324288E+02 -0.81778959503E+02  0.49177552000E+03  0.49873564923E+03  0.10566000000E+00 0.  1.
        994    1    1    2    0    0  0.13082074793E+02  0.38686931570E+02  0.13245114898E+02  0.17650125332E+03  0.17120000000E+03 0.  0.
        998    1    1    2    0    0  0.12802494951E+01  0.43092027932E+02  0.99497936138E+03  0.99596309745E+03  0.10000000000E+02 0.  1.
</event>
<event>
 5    1  0.9130022E-009  0.3819228E+03  0.7957747E-01  0.3442829E+00
         13   -1    0    0    0    0  0.00000000000E+00  0.00000000000E+00  0.14999999963E+04  0.15000000000E+04  0.10566000000E+00 0.  1.
        994   -1    0    0    0    0 -0.00000000000E+00 -0.00000000000E+00  0.11368683772E-12  0.17120000000E+03  0.17120000000E+03 0.  0.
         13    1    1    2    0    0  0.57513098663E+02  0.16439884505E+03  0.94455544734E+03  0.96047891233E+03  0.10566000000E+00 0.  1.
        994    1    1    2    0    0 -0.70013538517E+02 -0.17531783744E+03  0.13231799073E+03  0.28715105845E+03  0.17120000000E+03 0.  0.
        998    1    1    2    0    0  0.12500439854E+02  0.10918992389E+02  0.42312655820E+03  0.42357002921E+03  0.10000000000E+02 0.  1.
</event>
<event>
 5    1  0.9130022E-009  0.3816648E+03  0.7957747E-01  0.3443942E+00
         13   -1    0    0    0    0  0.00000000000E+00  0.00000000000E+00  0.14999999963E+04  0.15000000000E+04  0.10566000000E+00 0. -1.
        994   -1    0    0    0    0 -0.00000000000E+00 -0.00000000000E+00  0.11368683772E-12  0.17120000000E+03  0.17120000000E+03 0.  0.
         13    1    1    2    0    0 -0.26516489384E+03 -0.24047302030E+02  0.10312439543E+04  0.10650609363E+04  0.10566000000E+00 0. -1.
        994    1    1    2    0    0  0.26960071647E+03  0.37198866553E+02  0.31055132338E+03  0.44701215470E+03  0.17120000000E+03 0.  0.
        998    1    1    2    0    0 -0.44358226314E+01 -0.13151564524E+02  0.15820471858E+03  0.15912690896E+03  0.10000000000E+02 0. -1.
</event>
<event>
 5    1  0.1266184E-008  0.3848779E+03  0.7957747E-01  0.3430190E+00
         13   -1    0    0    0    0  0.00000000000E+00  0.00000000000E+00  0.14999999963E+04  0.15000000000E+04  0.10566000000E+00 0. -1.
        994   -1    0    0    0    0 -0.00000000000E+00 -0.00000000000E+00  0.11368683772E-12  0.17120000000E+03  0.17120000000E+03 0.  0.
         13    1    1    2    0    0 -0.99246115977E+00 -0.13764023119E+02  0.57052194213E+02  0.58697507104E+02  0.10566000000E+00 0. -1.
        994    1    1    2    0    0 -0.89783151866E-01  0.67183775561E+01  0.18393028057E+01  0.17134166946E+03  0.17120000000E+03 0.  0.
        998    1    1    2    0    0  0.10822443116E+01  0.70456455632E+01  0.14411084993E+04  0.14411608234E+04  0.10000000000E+02 0. -1.
</event>
<event>
 5    1  0.9130022E-009  0.3765431E+03  0.7957747E-01  0.3466350E+00
         13   -1    0    0    0    0  0.00000000000E+00  0.00000000000E+00  0.14999999963E+04  0.15000000000E+04  0.10566000000E+00 0.  1.
        994   -1    0    0    0    0 -0.00000000000E+00 -0.00000000000E+00  0.11368683772E-12  0.17120000000E+03  0.17120000000E+03 0.  0.
         13    1    1    2    0    0 -0.42518665848E+02  0.31584225744E+02  0.27317601445E+03  0.27826344765E+03  0.10566000000E+00 0.  1.
        994    1    1    2    0    0  0.12748610991E+02 -0.21929620051E+01  0.64545070638E+01  0.17180930367E+03  0.17120000000E+03 0.  0.
        998    1    1    2    0    0  0.29770054858E+02 -0.29391263739E+02  0.12203694748E+04  0.12211272487E+04  0.10000000000E+02 0.  1.
</event>
<event>
 5    1  0.9130022E-009  0.3854414E+03  0.7957747E-01  0.3427802E+00
         13   -1    0    0    0    0  0.00000000000E+00  0.00000000000E+00  0.14999999963E+04  0.15000000000E+04  0.10566000000E+00 0.  1.
        994   -1    0    0    0    0 -0.00000000000E+00 -0.00000000000E+00  0.11368683772E-12  0.17120000000E+03  0.17120000000E+03 0.  0.
         13    1    1    2    0    0 -0.74385088800E+01  0.13999279144E+02  0.84122855809E+02  0.85603605440E+02  0.10566000000E+00 0.  1.
        994    1    1    2    0    0  0.29522046710E+02 -0.60373733799E+01  0.43986516877E+01  0.17388728894E+03  0.17120000000E+03 0.  0.
        998    1    1    2    0    0 -0.22083537830E+02 -0.79619057644E+01  0.14114784888E+04  0.14117091056E+04  0.10000000000E+02 0.  1.
</event>
<event>
 5    1  0.9130022E-009  0.3774375E+03  0.7957747E-01  0.3462393E+00
         13   -1    0    0    0    0  0.00000000000E+00  0.00000000000E+00  0.14999999963E+04  0.15000000000E+04  0.10566000000E+00 0.  1.
        994   -1    0    0    0    0 -0.00000000000E+00 -0.00000000000E+00  0.11368683772E-12  0.17120000000E+03  0.17120000000E+03 0.  0.
         13    1    1    2    0    0 -0.41214239869E+02  0.23580912527E+02  0.23665723621E+03  0.24137384203E+03  0.10566000000E+00 0.  1.
        994    1    1    2    0    0  0.10842578402E+01 -0.15097321362E+02  0.62050985367E+01  0.17197978944E+03  0.17120000000E+03 0.  0.
        998    1    1    2    0    0  0.40129982029E+02 -0.84835911647E+01  0.12571376615E+04  0.12578463685E+04  0.10000000000E+02 0.  1.
</event>
<event>
 5    1  0.9130022E-009  0.3735507E+03  0.7957747E-01  0.3479730E+00
         13   -1    0    0    0    0  0.00000000000E+00  0.00000000000E+00  0.14999999963E+04  0.15000000000E+04  0.10566000000E+00 0.  1.
        994   -1    0    0    0    0 -0.00000000000E+00 -0.00000000000E+00  0.11368683772E-12  0.17120000000E+03  0.17120000000E+03 0.  0.
         13    1    1    2    0    0 -0.14859746416E+02 -0.42433514493E+01  0.12672895322E+02  0.19985783321E+02  0.10566000000E+00 0.  1.
        994    1    1    2    0    0  0.16285693712E+02 -0.11694096568E+01  0.83360289807E+01  0.17217874642E+03  0.17120000000E+03 0.  0.
        998    1    1    2    0    0 -0.14259472966E+01  0.54127611062E+01  0.14789910720E+04  0.14790354703E+04  0.10000000000E+02 0.  1.
</event>
<event>
 5    1  0.9130022E-009  0.3847955E+03  0.7957747E-01  0.3430540E+00
         13   -1    0    0    0    0  0.00000000000E+00  0.00000000000E+00  0.14999999963E+04  0.15000000000E+04  0.10566000000E+00 0.  1.
        994   -1    0    0    0    0 -0.00000000000E+00 -0.00000000000E+00  0.11368683772E-12  0.17120000000E+03  0.17120000000E+03 0.  0.
         13    1    1    2    0    0  0.11103748830E+02 -0.22021876834E+01  0.36785181740E+02  0.38487707497E+02  0.10566000000E+00 0.  1.
        994    1    1    2    0    0 -0.68069396388E+01  0.41438788499E+01  0.19407062766E+01  0.17139636081E+03  0.17120000000E+03 0.  0.
        998    1    1    2    0    0 -0.42968091915E+01 -0.19416911665E+01  0.14612741083E+04  0.14613159317E+04  0.10000000000E+02 0.  1.
</event>
<event>
 5    1  0.9130022E-009  0.3763307E+03  0.7957747E-01  0.3467293E+00
         13   -1    0    0    0    0  0.00000000000E+00  0.00000000000E+00  0.14999999963E+04  0.15000000000E+04  0.10566000000E+00 0.  1.
        994   -1    0    0    0    0 -0.00000000000E+00 -0.00000000000E+00  0.11368683772E-12  0.17120000000E+03  0.17120000000E+03 0.  0.
         13    1    1    2    0    0  0.52686906341E+02  0.43921244252E+02  0.35135291963E+03  0.35798585320E+03  0.10566000000E+00 0.  1.
        994    1    1    2    0    0 -0.37189326475E+02 -0.35515846782E+02  0.14998675157E+02  0.17938456353E+03  0.17120000000E+03 0.  0.
        998    1    1    2    0    0 -0.15497579866E+02 -0.84053974703E+01  0.11336484015E+04  0.11338295833E+04  0.10000000000E+02 0.  1.
</event>
<event>
 5    1  0.9130022E-009  0.3798897E+03  0.7957747E-01  0.3451639E+00
         13   -1    0    0    0    0  0.00000000000E+00  0.00000000000E+00  0.14999999963E+04  0.15000000000E+04  0.10566000000E+00 0.  1.
        994   -1    0    0    0    0 -0.00000000000E+00 -0.00000000000E+00  0.11368683772E-12  0.17120000000E+03  0.17120000000E+03 0.  0.
         13    1    1    2    0    0  0.34867879356E+02 -0.10083199498E+02  0.14500040314E+03  0.14947430547E+03  0.10566000000E+00 0.  1.
        994    1    1    2    0    0 -0.31030115229E+02  0.12022679151E+02  0.79010361247E+01  0.17458315851E+03  0.17120000000E+03 0.  0.
        998    1    1    2    0    0 -0.38377641276E+01 -0.19394796539E+01  0.13470985570E+04  0.13471425360E+04  0.10000000000E+02 0.  1.
</event>
<event>
 5    1  0.9130022E-009  0.3826253E+03  0.7957747E-01  0.3439806E+00
         13   -1    0    0    0    0  0.00000000000E+00  0.00000000000E+00  0.14999999963E+04  0.15000000000E+04  0.10566000000E+00 0.  1.
        994   -1    0    0    0    0 -0.00000000000E+00 -0.00000000000E+00  0.11368683772E-12  0.17120000000E+03  0.17120000000E+03 0.  0.
         13    1    1    2    0    0  0.21565783750E+02 -0.26273947445E+02  0.17477722174E+03  0.17805193553E+03  0.10566000000E+00 0.  1.
        994    1    1    2    0    0 -0.23633817280E+02  0.31829672971E+02  0.80401036001E+01  0.17591409456E+03  0.17120000000E+03 0.  0.
        998    1    1    2    0    0  0.20680335307E+01 -0.55557255262E+01  0.13171826709E+04  0.13172339699E+04  0.10000000000E+02 0.  1.
</event>
<event>
 5    1  0.9130022E-009  0.3714729E+03  0.7957747E-01  0.3489149E+00
         13   -1    0    0    0    0  0.00000000000E+00  0.00000000000E+00  0.14999999963E+04  0.15000000000E+04  0.10566000000E+00 0. -1.
        994   -1    0    0    0    0 -0.00000000000E+00 -0.00000000000E+00  0.11368683772E-12  0.17120000000E+03  0.17120000000E+03 0.  0.
         13    1    1    2    0    0 -0.24879598611E+02 -0.40611382029E+02  0.14282698197E+03  0.15055841630E+03  0.10566000000E+00 0. -1.
        994    1    1    2    0    0 -0.14868377361E+00  0.10761760010E+02  0.88998004098E+01  0.17176869340E+03  0.17120000000E+03 0.  0.
        998    1    1    2    0    0  0.25028282384E+02  0.29849622019E+02  0.13482732139E+04  0.13488728903E+04  0.10000000000E+02 0. -1.
</event>
<event>
 5    1  0.9130022E-009  0.3714449E+03  0.7957747E-01  0.3489277E+00
         13   -1    0    0    0    0  0.00000000000E+00  0.00000000000E+00  0.14999999963E+04  0.15000000000E+04  0.10566000000E+00 0.  1.
        994   -1    0    0    0    0 -0.00000000000E+00 -0.00000000000E+00  0.11368683772E-12  0.17120000000E+03  0.17120000000E+03 0.  0.
         13    1    1    2    0    0 -0.60116966174E+02 -0.17511540944E+03  0.66656300582E+03  0.69179889284E+03  0.10566000000E+00 0.  1.
        994    1    1    2    0    0  0.82287375337E+02  0.19375474904E+03  0.18081638657E+03  0.32606152880E+03  0.17120000000E+03 0.  0.
        998    1    1    2    0    0 -0.22170409163E+02 -0.18639339596E+02  0.65262060389E+03  0.65333957835E+03  0.10000000000E+02 0.  1.
</event>
<event>
 5    1  0.9130022E-009  0.3826638E+03  0.7957747E-01  0.3439641E+00
         13   -1    0    0    0    0  0.00000000000E+00  0.00000000000E+00  0.14999999963E+04  0.15000000000E+04  0.10566000000E+00 0. -1.
        994   -1    0    0    0    0 -0.00000000000E+00 -0.00000000000E+00  0.11368683772E-12  0.17120000000E+03  0.17120000000E+03 0.  0.
         13    1    1    2    0    0  0.22783705380E+02 -0.11381259036E+02  0.10066845946E+03  0.10384016652E+03  0.10566000000E+00 0. -1.
        994    1    1    2    0    0 -0.32298903018E+02  0.20503530796E+02  0.76597039199E+01  0.17558964940E+03  0.17120000000E+03 0.  0.
        998    1    1    2    0    0  0.95151976376E+01 -0.91222717604E+01  0.13916718329E+04  0.13917701841E+04  0.10000000000E+02 0. -1.
</event>
<event>
 5    1  0.9130022E-009  0.3814303E+03  0.7957747E-01  0.3444954E+00
         13   -1    0    0    0    0  0.00000000000E+00  0.00000000000E+00  0.14999999963E+04  0.15000000000E+04  0.10566000000E+00 0.  1.
        994   -1    0    0    0    0 -0.00000000000E+00 -0.00000000000E+00  0.11368683772E-12  0.17120000000E+03  0.17120000000E+03 0.  0.
         13    1    1    2    0    0 -0.29280290250E+01 -0.12215968388E+02  0.21645711298E+02  0.25027009795E+02  0.10566000000E+00 0.  1.
        994    1    1    2    0    0  0.48993130310E+01  0.96462143447E+01  0.38024160173E+01  0.17158365623E+03  0.17120000000E+03 0.  0.
        998    1    1    2    0    0 -0.19712840060E+01  0.25697540433E+01  0.14745518690E+04  0.14745893340E+04  0.10000000000E+02 0.  1.
</event>
<event>
 5    1  0.9130022E-009  0.3839762E+03  0.7957747E-01  0.3434026E+00
         13   -1    0    0    0    0  0.00000000000E+00  0.00000000000E+00  0.14999999963E+04  0.15000000000E+04  0.10566000000E+00 0.  1.
        994   -1    0    0    0    0 -0.00000000000E+00 -0.00000000000E+00  0.11368683772E-12  0.17120000000E+03  0.17120000000E+03 0.  0.
         13    1    1    2    0    0  0.11168662096E+02  0.26487442108E+01  0.29731641019E+02  0.31870621278E+02  0.10566000000E+00 0.  1.
        994    1    1    2    0    0 -0.73083518415E+01 -0.20849305804E+02  0.37515012125E+01  0.17266041619E+03  0.17120000000E+03 0.  0.
        998    1    1    2    0    0 -0.38603102545E+01  0.18200561594E+02  0.14665168540E+04  0.14666689625E+04  0.10000000000E+02 0.  1.
</event>
<event>
 5    1  0.9130022E-009  0.3810935E+03  0.7957747E-01  0.3446411E+00
         13   -1    0    0    0    0  0.00000000000E+00  0.00000000000E+00  0.14999999963E+04  0.15000000000E+04  0.10566000000E+00 0.  1.
        994   -1    0    0    0    0 -0.00000000000E+00 -0.00000000000E+00  0.11368683772E-12  0.17120000000E+03  0.17120000000E+03 0.  0.
         13    1    1    2    0    0  0.74441638578E+01 -0.22407863955E+02  0.73390242882E+02  0.77095180504E+02  0.10566000000E+00 0.  1.
        994    1    1    2    0    0 -0.91911840397E+01  0.22152072500E+02  0.55004196608E+01  0.17295920558E+03  0.17120000000E+03 0.  0.
        998    1    1    2    0    0  0.17470201819E+01  0.25579145447E+00  0.14211093337E+04  0.14211456139E+04  0.10000000000E+02 0.  1.
</event>
<event>
 5    1  0.1153398E-008  0.3861297E+03  0.7957747E-01  0.3424895E+00
         13   -1    0    0    0    0  0.00000000000E+00  0.00000000000E+00  0.14999999963E+04  0.15000000000E+04  0.10566000000E+00 0. -1.
        994   -1    0    0    0    0 -0.00000000000E+00 -0.00000000000E+00  0.11368683772E-12  0.17120000000E+03  0.17120000000E+03 0.  0.
         13    1    1    2    0    0 -0.73418242432E+01  0.89925908901E+01  0.63730238867E+02  0.64779036610E+02  0.10566000000E+00 0. -1.
        994    1    1    2    0    0  0.89495093172E+01 -0.30320680531E+01  0.13629060649E+01  0.17146598691E+03  0.17120000000E+03 0.  0.
        998    1    1    2    0    0 -0.16076850740E+01 -0.59605228371E+01  0.14349068513E+04  0.14349549765E+04  0.10000000000E+02 0. -1.
</event>
<event>
 5    1  0.9130022E-009  0.3829059E+03  0.7957747E-01  0.3438602E+00
         13   -1    0    0    0    0  0.00000000000E+00  0.00000000000E+00  0.14999999963E+04  0.15000000000E+04  0.10566000000E+00 0.  1.
        994   -1    0    0    0    0 -0.00000000000E+00 -0.00000000000E+00  0.11368683772E-12  0.17120000000E+03  0.17120000000E+03 0.  0.
         13    1    1    2    0    0 -0.60289807200E+01  0.25297266794E+02  0.14663108132E+03  0.14891939259E+03  0.10566000000E+00 0.  1.
        994    1    1    2    0    0  0.10060778119E+02  0.62649925204E+01  0.31386447904E+01  0.17163845862E+03  0.17120000000E+03 0.  0.
        998    1    1    2    0    0 -0.40317973988E+01 -0.31562259315E+02  0.13502302702E+04  0.13506421488E+04  0.10000000000E+02 0.  1.
</event>
<event>
 5    1  0.9130022E-009  0.3724296E+03  0.7957747E-01  0.3484799E+00
         13   -1    0    0    0    0  0.00000000000E+00  0.00000000000E+00  0.14999999963E+04  0.15000000000E+04  0.10566000000E+00 0. -1.
        994   -1    0    0    0    0 -0.00000000000E+00 -0.00000000000E+00  0.11368683772E-12  0.17120000000E+03  0.17120000000E+03 0.  0.
         13    1    1    2    0    0  0.54604972067E+02 -0.55512090036E+01  0.12739834637E+03  0.13871866752E+03  0.10566000000E+00 0. -1.
        994    1    1    2    0    0 -0.15564529463E+02  0.12069340236E+02  0.13598273077E+02  0.17286490847E+03  0.17120000000E+03 0.  0.
        998    1    1    2    0    0 -0.39040442604E+02 -0.65181312325E+01  0.13590033768E+04  0.13596164240E+04  0.10000000000E+02 0. -1.
</event>
<event>
 5    1  0.9130022E-009  0.3865988E+03  0.7957747E-01  0.3422920E+00
         13   -1    0    0    0    0  0.00000000000E+00  0.00000000000E+00  0.14999999963E+04  0.15000000000E+04  0.10566000000E+00 0. -1.
        994   -1    0    0    0    0 -0.00000000000E+00 -0.00000000000E+00  0.11368683772E-12  0.17120000000E+03  0.17120000000E+03 0.  0.
         13    1    1    2    0    0  0.22789168070E+03  0.40147446828E+02  0.12102729226E+04  0.12321960047E+04  0.10566000000E+00 0. -1.
        994    1    1    2    0    0 -0.23515050439E+03 -0.40740531604E+02  0.21685807783E+03  0.36509233976E+03  0.17120000000E+03 0.  0.
        998    1    1    2    0    0  0.72588236963E+01  0.59308477626E+00  0.72868995847E+02  0.73911655554E+02  0.10000000000E+02 0. -1.
</event>
<event>
 5    1  0.9130022E-009  0.3753198E+03  0.7957747E-01  0.3471794E+00
         13   -1    0    0    0    0  0.00000000000E+00  0.00000000000E+00  0.14999999963E+04  0.15000000000E+04  0.10566000000E+00 0. -1.
        994   -1    0    0    0    0 -0.00000000000E+00 -0.00000000000E+00  0.11368683772E-12  0.17120000000E+03  0.17120000000E+03 0.  0.
         13    1    1    2    0    0 -0.30387454259E+02 -0.16060044741E+02  0.90964748957E+02  0.97241550432E+02  0.10566000000E+00 0. -1.
        994    1    1    2    0    0  0.14327970164E+02  0.29999866442E+01  0.72425654101E+01  0.17197728165E+03  0.17120000000E+03 0.  0.
        998    1    1    2    0    0  0.16059484095E+02  0.13060058097E+02  0.14017926819E+04  0.14019811679E+04  0.10000000000E+02 0. -1.
</event>
<event>
 5    1  0.1058265E-008  0.3862562E+03  0.7957747E-01  0.3424362E+00
         13   -1    0    0    0    0  0.00000000000E+00  0.00000000000E+00  0.14999999963E+04  0.15000000000E+04  0.10566000000E+00 0.  1.
        994   -1    0    0    0    0 -0.00000000000E+00 -0.00000000000E+00  0.11368683772E-12  0.17120000000E+03  0.17120000000E+03 0.  0.
         13    1    1    2    0    0  0.10595956602E+00 -0.10546909098E+02  0.56832653092E+02  0.57803201818E+02  0.10566000000E+00 0.  1.
        994    1    1    2    0    0  0.66258544391E+01  0.55140673272E+01  0.12511638475E+01  0.17142144643E+03  0.17120000000E+03 0.  0.
        998    1    1    2    0    0 -0.67318140051E+01  0.50328417709E+01  0.14419161793E+04  0.14419753518E+04  0.10000000000E+02 0.  1.
</event>
<event>
 5    1  0.9130022E-009  0.3764831E+03  0.7957747E-01  0.3466616E+00
         13   -1    0    0    0    0  0.00000000000E+00  0.00000000000E+00  0.14999999963E+04  0.15000000000E+04  0.10566000000E+00 0. -1.
        994   -1    0    0    0    0 -0.00000000000E+00 -0.00000000000E+00  0.11368683772E-12  0.17120000000E+03  0.17120000000E+03 0.  0.
         13    1    1    2    0    0  0.25115166167E+02  0.11460902706E+02  0.67683346945E+02  0.73096993647E+02  0.10566000000E+00 0. -1.
        994    1    1    2    0    0  0.79330296279E+01 -0.48644446837E+01  0.62120405821E+01  0.17156522150E+03  0.17120000000E+03 0.  0.
        998    1    1    2    0    0 -0.33048195795E+02 -0.65964580224E+01  0.14261046088E+04  0.14265377849E+04  0.10000000000E+02 0. -1.
</event>
<event>
 5    1  0.9130022E-009  0.3842226E+03  0.7957747E-01  0.3432976E+00
         13   -1    0    0    0    0  0.00000000000E+00  0.00000000000E+00  0.14999999963E+04  0.15000000000E+04  0.10566000000E+00 0.  1.
        994   -1    0    0    0    0 -0.00000000000E+00 -0.00000000000E+00  0.11368683772E-12  0.17120000000E+03  0.17120000000E+03 0.  0.
         13    1    1    2    0    0  0.11554335290E+02 -0.78811992313E+01  0.53536563516E+02  0.55333450665E+02  0.10566000000E+00 0.  1.
        994    1    1    2    0    0  0.97367980836E+01 -0.48713269936E+01  0.24074860853E+01  0.17156273212E+03  0.17120000000E+03 0.  0.
        998    1    1    2    0    0 -0.21291133374E+02  0.12752526225E+02  0.14440559467E+04  0.14443038172E+04  0.10000000000E+02 0.  1.
</event>
<event>
 5    1  0.9781019E-009  0.3857340E+03  0.7957747E-01  0.3426565E+00
         13   -1    0    0    0    0  0.00000000000E+00  0.00000000000E+00  0.14999999963E+04  0.15000000000E+04  0.10566000000E+00 0. -1.
        994   -1    0    0    0    0 -0.00000000000E+00 -0.00000000000E+00  0.11368683772E-12  0.17120000000E+03  0.17120000000E+03 0.  0.
         13    1    1    2    0    0 -0.85153258098E+01  0.66466884341E+01  0.47405209846E+02  0.48620513421E+02  0.10566000000E+00 0. -1.
        994    1    1    2    0    0 -0.24470382834E+02 -0.41983950667E+02  0.90523369566E+01  0.17819325620E+03  0.17120000000E+03 0.  0.
        998    1    1    2    0    0  0.32985708643E+02  0.35337262233E+02  0.14435424495E+04  0.14443862304E+04  0.10000000000E+02 0. -1.
</event>
<event>
 5    1  0.9130022E-009  0.3748444E+03  0.7957747E-01  0.3473919E+00
         13   -1    0    0    0    0  0.00000000000E+00  0.00000000000E+00  0.14999999963E+04  0.15000000000E+04  0.10566000000E+00 0.  1.
        994   -1    0    0    0    0 -0.00000000000E+00 -0.00000000000E+00  0.11368683772E-12  0.17120000000E+03  0.17120000000E+03 0.  0.
         13    1    1    2    0    0  0.20942385901E+02  0.13672360357E+02  0.42964023678E+02  0.49713533968E+02  0.10566000000E+00 0.  1.
        994    1    1    2    0    0 -0.17927063472E+02 -0.12053083583E+02  0.83473605265E+01  0.17275929745E+03  0.17120000000E+03 0.  0.
        998    1    1    2    0    0 -0.30153224290E+01 -0.16192767735E+01  0.14486886121E+04  0.14487271686E+04  0.10000000000E+02 0.  1.
</event>
<event>
 5    1  0.9130022E-009  0.2533789E+03  0.7957747E-01  0.4297731E+00
         13   -1    0    0    0    0  0.00000000000E+00  0.00000000000E+00  0.14999999963E+04  0.15000000000E+04  0.10566000000E+00 0.  1.
        994   -1    0    0    0    0 -0.00000000000E+00 -0.00000000000E+00  0.11368683772E-12  0.17120000000E+03  0.17120000000E+03 0.  0.
         13    1    1    2    0    0 -0.15299197778E+03  0.14687522601E+03  0.19705549393E+03  0.28949914703E+03  0.10566000000E+00 0.  1.
        994    1    1    2    0    0  0.95962332206E+02 -0.11778621124E+03  0.30339363318E+03  0.38005196673E+03  0.17120000000E+03 0.  0.
        998    1    1    2    0    0  0.57029645573E+02 -0.29089014762E+02  0.99955086916E+03  0.10016488862E+04  0.10000000000E+02 0.  1.
</event>
<event>
 5    1  0.9130022E-009  0.3770712E+03  0.7957747E-01  0.3464011E+00
         13   -1    0    0    0    0  0.00000000000E+00  0.00000000000E+00  0.14999999963E+04  0.15000000000E+04  0.10566000000E+00 0. -1.
        994   -1    0    0    0    0 -0.00000000000E+00 -0.00000000000E+00  0.11368683772E-12  0.17120000000E+03  0.17120000000E+03 0.  0.
         13    1    1    2    0    0 -0.56421815063E+02  0.10414596335E+03  0.28469610234E+03  0.30835318183E+03  0.10566000000E+00 0. -1.
        994    1    1    2    0    0  0.32025599070E+02 -0.16905888212E+03  0.13012036307E+03  0.27540387344E+03  0.17120000000E+03 0.  0.
        998    1    1    2    0    0  0.24396215993E+02  0.64912918769E+02  0.10851835309E+04  0.10874429447E+04  0.10000000000E+02 0. -1.
</event>
<event>
 5    1  0.9130022E-009  0.3845770E+03  0.7957747E-01  0.3431468E+00
         13   -1    0    0    0    0  0.00000000000E+00  0.00000000000E+00  0.14999999963E+04  0.15000000000E+04  0.10566000000E+00 0.  1.
        994   -1    0    0    0    0 -0.00000000000E+00 -0.00000000000E+00  0.11368683772E-12  0.17120000000E+03  0.17120000000E+03 0.  0.
         13    1    1    2    0    0  0.34256012791E+01  0.23872171529E+02  0.14216136871E+03  0.14419251449E+03  0.10566000000E+00 0.  1.
        994    1    1    2    0    0 -0.56995150087E+01 -0.26117656768E+02  0.41971894362E+01  0.17332533821E+03  0.17120000000E+03 0.  0.
        998    1    1    2    0    0  0.22739137296E+01  0.22454852390E+01  0.13536414381E+04  0.13536821473E+04  0.10000000000E+02 0.  1.
</event>
<event>
 5    1  0.1349855E-008  0.3860895E+03  0.7957747E-01  0.3425065E+00
         13   -1    0    0    0    0  0.00000000000E+00  0.00000000000E+00  0.14999999963E+04  0.15000000000E+04  0.10566000000E+00 0.  1.
        994   -1    0    0    0    0 -0.00000000000E+00 -0.00000000000E+00  0.11368683772E-12  0.17120000000E+03  0.17120000000E+03 0.  0.
         13    1    1    2    0    0  0.10031693829E+02 -0.73406539130E+01  0.69022812568E+02  0.70133300933E+02  0.10566000000E+00 0.  1.
        994    1    1    2    0    0 -0.12476315679E+02  0.54165889604E+01  0.16966810161E+01  0.17174782856E+03  0.17120000000E+03 0.  0.
        998    1    1    2    0    0  0.24446218501E+01  0.19240649526E+01  0.14292805027E+04  0.14293188705E+04  0.10000000000E+02 0.  1.
</event>
