<event>
 5    1  0.1533416E-008  0.3818334E+03  0.7957747E-01  0.3443214E+00
         13   -1    0    0    0    0  0.00000000000E+00  0.00000000000E+00  0.14999999963E+04  0.15000000000E+04  0.10566000000E+00 0. -1.
        994   -1    0    0    0    0 -0.00000000000E+00 -0.00000000000E+00  0.11368683772E-12  0.17120000000E+03  0.17120000000E+03 0.  0.
         13    1    1    2    0    0 -0.84771184383E+02  0.26106132684E+03  0.10143285432E+04  0.10508099613E+04  0.10566000000E+00 0. -1.
        994    1    1    2    0    0  0.87095229570E+02 -0.26530643763E+03  0.33220467529E+03  0.46652167275E+03  0.17120000000E+03 0.  0.
        998    1    1    2    0    0 -0.23240451864E+01  0.42451107954E+01  0.15346677781E+03  0.15386836596E+03  0.10000000000E+02 0.  0.
</event>
<event>
 5    1  0.1818370E-008  0.3854866E+03  0.7957747E-01  0.3427611E+00
         13   -1    0    0    0    0  0.00000000000E+00  0.00000000000E+00  0.14999999963E+04  0.15000000000E+04  0.10566000000E+00 0.  1.
        994   -1    0    0    0    0 -0.00000000000E+00 -0.00000000000E+00  0.11368683772E-12  0.17120000000E+03  0.17120000000E+03 0.  0.
         13    1    1    2    0    0  0.13865272086E+01 -0.10272735333E+02  0.39653021726E+02  0.40985666335E+02  0.10566000000E+00 0.  1.
        994    1    1    2    0    0  0.28945220674E+00  0.29780839163E+01  0.14181285453E+01  0.17123201761E+03  0.17120000000E+03 0.  0.
        998    1    1    2    0    0 -0.16759794153E+01  0.72946514163E+01  0.14589288460E+04  0.14589823161E+04  0.10000000000E+02 0.  1.
</event>
<event>
 5    1  0.1533416E-008  0.3722075E+03  0.7957747E-01  0.3485807E+00
         13   -1    0    0    0    0  0.00000000000E+00  0.00000000000E+00  0.14999999963E+04  0.15000000000E+04  0.10566000000E+00 0.  1.
        994   -1    0    0    0    0 -0.00000000000E+00 -0.00000000000E+00  0.11368683772E-12  0.17120000000E+03  0.17120000000E+03 0.  0.
         13    1    1    2    0    0 -0.27517759409E+02  0.71825178362E+01  0.45167842486E+02  0.53375657413E+02  0.10566000000E+00 0.  1.
        994    1    1    2    0    0  0.33740872184E+02  0.11176305106E+02  0.12467433808E+02  0.17529470373E+03  0.17120000000E+03 0.  0.
        998    1    1    2    0    0 -0.62231127755E+01 -0.18358822942E+02  0.14423647200E+04  0.14425296389E+04  0.10000000000E+02 0.  1.
</event>
<event>
 5    1  0.1533416E-008  0.3843029E+03  0.7957747E-01  0.3432634E+00
         13   -1    0    0    0    0  0.00000000000E+00  0.00000000000E+00  0.14999999963E+04  0.15000000000E+04  0.10566000000E+00 0.  1.
        994   -1    0    0    0    0 -0.00000000000E+00 -0.00000000000E+00  0.11368683772E-12  0.17120000000E+03  0.17120000000E+03 0.  0.
         13    1    1    2    0    0  0.15130437682E+02 -0.72783486659E+01  0.75189020249E+02  0.77040927005E+02  0.10566000000E+00 0.  1.
        994    1    1    2    0    0 -0.10360742844E+01  0.19418224686E+01  0.19925982590E+01  0.17122574156E+03  0.17120000000E+03 0.  0.
        998    1    1    2    0    0 -0.14094363397E+02  0.53365261973E+01  0.14228183778E+04  0.14229333314E+04  0.10000000000E+02 0.  1.
</event>
<event>
 5    1  0.1533416E-008  0.3716502E+03  0.7957747E-01  0.3488341E+00
         13   -1    0    0    0    0  0.00000000000E+00  0.00000000000E+00  0.14999999963E+04  0.15000000000E+04  0.10566000000E+00 0.  1.
        994   -1    0    0    0    0 -0.00000000000E+00 -0.00000000000E+00  0.11368683772E-12  0.17120000000E+03  0.17120000000E+03 0.  0.
         13    1    1    2    0    0 -0.29158593357E+02  0.65701792914E+01  0.48664463189E+02  0.57110699207E+02  0.10566000000E+00 0.  1.
        994    1    1    2    0    0  0.26547019525E+02 -0.10161534674E+02  0.11192091735E+02  0.17390429538E+03  0.17120000000E+03 0.  0.
        998    1    1    2    0    0  0.26115738317E+01  0.35913553831E+01  0.14401434414E+04  0.14401850054E+04  0.10000000000E+02 0.  1.
</event>
<event>
 5    1  0.1533416E-008  0.3835519E+03  0.7957747E-01  0.3435837E+00
         13   -1    0    0    0    0  0.00000000000E+00  0.00000000000E+00  0.14999999963E+04  0.15000000000E+04  0.10566000000E+00 0.  1.
        994   -1    0    0    0    0 -0.00000000000E+00 -0.00000000000E+00  0.11368683772E-12  0.17120000000E+03  0.17120000000E+03 0.  0.
         13    1    1    2    0    0 -0.16950281368E+02 -0.19727488394E+01  0.62453889446E+02  0.64743364505E+02  0.10566000000E+00 0.  1.
        994    1    1    2    0    0  0.71314762863E+01  0.56079838511E+01  0.26227896883E+01  0.17146027663E+03  0.17120000000E+03 0.  0.
        998    1    1    2    0    0  0.98188050814E+01 -0.36352350117E+01  0.14349233171E+04  0.14349963589E+04  0.10000000000E+02 0.  1.
</event>
<event>
 5    1  0.1533416E-008  0.3841356E+03  0.7957747E-01  0.3433346E+00
         13   -1    0    0    0    0  0.00000000000E+00  0.00000000000E+00  0.14999999963E+04  0.15000000000E+04  0.10566000000E+00 0. -1.
        994   -1    0    0    0    0 -0.00000000000E+00 -0.00000000000E+00  0.11368683772E-12  0.17120000000E+03  0.17120000000E+03 0.  0.
         13    1    1    2    0    0 -0.83823329522E+01  0.11843436632E+02  0.47446660923E+02  0.49615796817E+02  0.10566000000E+00 0. -1.
        994    1    1    2    0    0  0.10037736946E+02 -0.21353100466E+02  0.38980199318E+01  0.17286221571E+03  0.17120000000E+03 0.  0.
        998    1    1    2    0    0 -0.16554039935E+01  0.95096638340E+01  0.14486553154E+04  0.14487219875E+04  0.10000000000E+02 0. -1.
</event>
<event>
 5    1  0.1533416E-008  0.3720652E+03  0.7957747E-01  0.3486453E+00
         13   -1    0    0    0    0  0.00000000000E+00  0.00000000000E+00  0.14999999963E+04  0.15000000000E+04  0.10566000000E+00 0. -1.
        994   -1    0    0    0    0 -0.00000000000E+00 -0.00000000000E+00  0.11368683772E-12  0.17120000000E+03  0.17120000000E+03 0.  0.
         13    1    1    2    0    0 -0.10312655312E+02  0.10093453171E+02  0.89600139264E+01  0.16985925648E+02  0.10566000000E+00 0. -1.
        994    1    1    2    0    0  0.75082203838E+01 -0.11357386980E+02  0.88302021807E+01  0.17196736924E+03  0.17120000000E+03 0.  0.
        998    1    1    2    0    0  0.28044349286E+01  0.12639338083E+01  0.14822097802E+04  0.14822467051E+04  0.10000000000E+02 0. -1.
</event>
<event>
 5    1  0.1533416E-008  0.3747087E+03  0.7957747E-01  0.3474527E+00
         13   -1    0    0    0    0  0.00000000000E+00  0.00000000000E+00  0.14999999963E+04  0.15000000000E+04  0.10566000000E+00 0.  1.
        994   -1    0    0    0    0 -0.00000000000E+00 -0.00000000000E+00  0.11368683772E-12  0.17120000000E+03  0.17120000000E+03 0.  0.
         13    1    1    2    0    0  0.58231367476E+02  0.72213273328E+01  0.23854484787E+03  0.24565564381E+03  0.10566000000E+00 0.  1.
        994    1    1    2    0    0 -0.37997683377E+02 -0.33650392325E+02  0.15644966717E+02  0.17924948488E+03  0.17120000000E+03 0.  0.
        998    1    1    2    0    0 -0.20233684099E+02  0.26429064992E+02  0.12458101817E+04  0.12462948713E+04  0.10000000000E+02 0.  1.
</event>
<event>
 5    1  0.1533416E-008  0.3806846E+03  0.7957747E-01  0.3448183E+00
         13   -1    0    0    0    0  0.00000000000E+00  0.00000000000E+00  0.14999999963E+04  0.15000000000E+04  0.10566000000E+00 0.  1.
        994   -1    0    0    0    0 -0.00000000000E+00 -0.00000000000E+00  0.11368683772E-12  0.17120000000E+03  0.17120000000E+03 0.  0.
         13    1    1    2    0    0 -0.32674965113E+02 -0.33035181611E+01  0.11060861711E+03  0.11538129797E+03  0.10566000000E+00 0.  1.
        994    1    1    2    0    0  0.63887314561E+02  0.65266415898E+01  0.17668241843E+02  0.18370027976E+03  0.17120000000E+03 0.  0.
        998    1    1    2    0    0 -0.31212349448E+02 -0.32231234287E+01  0.13717231373E+04  0.13721184223E+04  0.10000000000E+02 0.  1.
</event>
<event>
 5    1  0.1533416E-008  0.3741065E+03  0.7957747E-01  0.3477228E+00
         13   -1    0    0    0    0  0.00000000000E+00  0.00000000000E+00  0.14999999963E+04  0.15000000000E+04  0.10566000000E+00 0. -1.
        994   -1    0    0    0    0 -0.00000000000E+00 -0.00000000000E+00  0.11368683772E-12  0.17120000000E+03  0.17120000000E+03 0.  0.
         13    1    1    2    0    0  0.23454905883E+02 -0.54821416216E+02  0.21047379273E+03  0.21875728303E+03  0.10566000000E+00 0. -1.
        994    1    1    2    0    0 -0.80824329871E+01  0.63803671995E+02  0.21374295820E+02  0.18412640985E+03  0.17120000000E+03 0.  0.
        998    1    1    2    0    0 -0.15372472896E+02 -0.89822557791E+01  0.12681519077E+04  0.12683163071E+04  0.10000000000E+02 0. -1.
</event>
<event>
 5    1  0.1533416E-008  0.3819650E+03  0.7957747E-01  0.3442647E+00
         13   -1    0    0    0    0  0.00000000000E+00  0.00000000000E+00  0.14999999963E+04  0.15000000000E+04  0.10566000000E+00 0.  1.
        994   -1    0    0    0    0 -0.00000000000E+00 -0.00000000000E+00  0.11368683772E-12  0.17120000000E+03  0.17120000000E+03 0.  0.
         13    1    1    2    0    0 -0.12518260350E+02 -0.65061541159E+01  0.28991025527E+02  0.32241706045E+02  0.10566000000E+00 0.  1.
        994    1    1    2    0    0  0.18448655005E+02  0.17974380045E+02  0.53510795408E+01  0.17320942602E+03  0.17120000000E+03 0.  0.
        998    1    1    2    0    0 -0.59303946547E+01 -0.11468225929E+02  0.14656578912E+04  0.14657488679E+04  0.10000000000E+02 0.  1.
</event>
<event>
 5    1  0.1533416E-008  0.3848071E+03  0.7957747E-01  0.3430491E+00
         13   -1    0    0    0    0  0.00000000000E+00  0.00000000000E+00  0.14999999963E+04  0.15000000000E+04  0.10566000000E+00 0.  1.
        994   -1    0    0    0    0 -0.00000000000E+00 -0.00000000000E+00  0.11368683772E-12  0.17120000000E+03  0.17120000000E+03 0.  0.
         13    1    1    2    0    0 -0.57920917442E+01  0.83817992904E+01  0.29465951925E+02  0.31177818606E+02  0.10566000000E+00 0.  1.
        994    1    1    2    0    0  0.14395934247E+02 -0.13887404757E+01  0.24145622937E+01  0.17182677799E+03  0.17120000000E+03 0.  0.
        998    1    1    2    0    0 -0.86038425033E+01 -0.69930588147E+01  0.14681194821E+04  0.14681954034E+04  0.10000000000E+02 0.  1.
</event>
<event>
 5    1  0.1533416E-008  0.3859809E+03  0.7957747E-01  0.3425523E+00
         13   -1    0    0    0    0  0.00000000000E+00  0.00000000000E+00  0.14999999963E+04  0.15000000000E+04  0.10566000000E+00 0. -1.
        994   -1    0    0    0    0 -0.00000000000E+00 -0.00000000000E+00  0.11368683772E-12  0.17120000000E+03  0.17120000000E+03 0.  0.
         13    1    1    2    0    0 -0.28203806524E+01  0.11542159127E+02  0.63564215312E+02  0.64665265921E+02  0.10566000000E+00 0. -1.
        994    1    1    2    0    0  0.61870407054E+00 -0.54901846713E+01  0.12439772384E+01  0.17129364379E+03  0.17120000000E+03 0.  0.
        998    1    1    2    0    0  0.22016765819E+01 -0.60519744557E+01  0.14351918037E+04  0.14352410903E+04  0.10000000000E+02 0. -1.
</event>
<event>
 5    1  0.1533416E-008  0.3936157E+03  0.7957747E-01  0.3393934E+00
         13   -1    0    0    0    0  0.00000000000E+00  0.00000000000E+00  0.14999999963E+04  0.15000000000E+04  0.10566000000E+00 0. -1.
        994   -1    0    0    0    0 -0.00000000000E+00 -0.00000000000E+00  0.11368683772E-12  0.17120000000E+03  0.17120000000E+03 0.  0.
         13    1    1    2    0    0  0.97343470844E+02  0.54689661779E+01  0.32285722909E+03  0.33725726448E+03  0.10566000000E+00 0. -1.
        994    1    1    2    0    0  0.44188968223E+02 -0.15465498745E+02  0.32426962734E+02  0.18042392989E+03  0.17120000000E+03 0.  0.
        998    1    1    2    0    0 -0.14153243907E+03  0.99965325672E+01  0.11447158045E+04  0.11535188056E+04  0.10000000000E+02 0. -1.
</event>
<event>
 5    1  0.1533416E-008  0.3784535E+03  0.7957747E-01  0.3457920E+00
         13   -1    0    0    0    0  0.00000000000E+00  0.00000000000E+00  0.14999999963E+04  0.15000000000E+04  0.10566000000E+00 0.  1.
        994   -1    0    0    0    0 -0.00000000000E+00 -0.00000000000E+00  0.11368683772E-12  0.17120000000E+03  0.17120000000E+03 0.  0.
         13    1    1    2    0    0 -0.57648662405E+01 -0.19248957932E+02  0.41911113659E+02  0.46479120866E+02  0.10566000000E+00 0.  1.
        994    1    1    2    0    0  0.25901030607E+01 -0.86232108223E+01  0.51882931637E+01  0.17151509200E+03  0.17120000000E+03 0.  0.
        998    1    1    2    0    0  0.31747631799E+01  0.27872168754E+02  0.14529005895E+04  0.14532057871E+04  0.10000000000E+02 0.  1.
</event>
<event>
 5    1  0.1533416E-008  0.3849417E+03  0.7957747E-01  0.3429920E+00
         13   -1    0    0    0    0  0.00000000000E+00  0.00000000000E+00  0.14999999963E+04  0.15000000000E+04  0.10566000000E+00 0. -1.
        994   -1    0    0    0    0 -0.00000000000E+00 -0.00000000000E+00  0.11368683772E-12  0.17120000000E+03  0.17120000000E+03 0.  0.
         13    1    1    2    0    0  0.10829215016E+02 -0.15951964912E+02  0.10955732633E+03  0.11124098166E+03  0.10566000000E+00 0. -1.
        994    1    1    2    0    0 -0.91954656533E+01  0.11831022780E+02  0.23979824910E+01  0.17187123089E+03  0.17120000000E+03 0.  0.
        998    1    1    2    0    0 -0.16337493627E+01  0.41209421317E+01  0.13880446875E+04  0.13880877875E+04  0.10000000000E+02 0. -1.
</event>
<event>
 5    1  0.1533416E-008  0.3834587E+03  0.7957747E-01  0.3436235E+00
         13   -1    0    0    0    0  0.00000000000E+00  0.00000000000E+00  0.14999999963E+04  0.15000000000E+04  0.10566000000E+00 0. -1.
        994   -1    0    0    0    0 -0.00000000000E+00 -0.00000000000E+00  0.11368683772E-12  0.17120000000E+03  0.17120000000E+03 0.  0.
         13    1    1    2    0    0 -0.13154465594E+02 -0.66283665783E+02  0.11837714277E+03  0.13630745911E+03  0.10566000000E+00 0. -1.
        994    1    1    2    0    0 -0.10479412060E+02  0.50243952047E+02  0.27972288988E+02  0.18090373613E+03  0.17120000000E+03 0.  0.
        998    1    1    2    0    0  0.23633877655E+02  0.16039713736E+02  0.13536505645E+04  0.13539888048E+04  0.10000000000E+02 0. -1.
</event>
<event>
 5    1  0.1533416E-008  0.3827221E+03  0.7957747E-01  0.3439391E+00
         13   -1    0    0    0    0  0.00000000000E+00  0.00000000000E+00  0.14999999963E+04  0.15000000000E+04  0.10566000000E+00 0.  1.
        994   -1    0    0    0    0 -0.00000000000E+00 -0.00000000000E+00  0.11368683772E-12  0.17120000000E+03  0.17120000000E+03 0.  0.
         13    1    1    2    0    0  0.49880681093E+01 -0.17703585119E+02  0.56350278275E+02  0.59276156886E+02  0.10566000000E+00 0.  1.
        994    1    1    2    0    0  0.14283033968E+02  0.32013234894E+02  0.68473360958E+01  0.17488618665E+03  0.17120000000E+03 0.  0.
        998    1    1    2    0    0 -0.19271102077E+02 -0.14309649774E+02  0.14368023819E+04  0.14370376565E+04  0.10000000000E+02 0.  1.
</event>
<event>
 5    1  0.1533416E-008  0.3837183E+03  0.7957747E-01  0.3435126E+00
         13   -1    0    0    0    0  0.00000000000E+00  0.00000000000E+00  0.14999999963E+04  0.15000000000E+04  0.10566000000E+00 0.  1.
        994   -1    0    0    0    0 -0.00000000000E+00 -0.00000000000E+00  0.11368683772E-12  0.17120000000E+03  0.17120000000E+03 0.  0.
         13    1    1    2    0    0 -0.11036516775E+02 -0.12289098066E+02  0.62916431712E+02  0.65048560147E+02  0.10566000000E+00 0.  1.
        994    1    1    2    0    0 -0.14234125967E+01  0.23692425807E+01  0.22930250137E+01  0.17123766343E+03  0.17120000000E+03 0.  0.
        998    1    1    2    0    0  0.12459929372E+02  0.99198554854E+01  0.14347905396E+04  0.14349137764E+04  0.10000000000E+02 0.  1.
</event>
<event>
 5    1  0.1533416E-008  0.3826791E+03  0.7957747E-01  0.3439575E+00
         13   -1    0    0    0    0  0.00000000000E+00  0.00000000000E+00  0.14999999963E+04  0.15000000000E+04  0.10566000000E+00 0. -1.
        994   -1    0    0    0    0 -0.00000000000E+00 -0.00000000000E+00  0.11368683772E-12  0.17120000000E+03  0.17120000000E+03 0.  0.
         13    1    1    2    0    0 -0.12182743112E+02  0.99550733108E+01  0.47764077800E+02  0.50288577297E+02  0.10566000000E+00 0. -1.
        994    1    1    2    0    0 -0.15250521736E+02 -0.14266617864E+01  0.35646250161E+01  0.17192079667E+03  0.17120000000E+03 0.  0.
        998    1    1    2    0    0  0.27433264848E+02 -0.85284115243E+01  0.14486712935E+04  0.14489906260E+04  0.10000000000E+02 0. -1.
</event>
<event>
 5    1  0.1533416E-008  0.3771073E+03  0.7957747E-01  0.3463852E+00
         13   -1    0    0    0    0  0.00000000000E+00  0.00000000000E+00  0.14999999963E+04  0.15000000000E+04  0.10566000000E+00 0. -1.
        994   -1    0    0    0    0 -0.00000000000E+00 -0.00000000000E+00  0.11368683772E-12  0.17120000000E+03  0.17120000000E+03 0.  0.
         13    1    1    2    0    0 -0.17591135774E+02  0.20860382815E+02  0.61473434653E+02  0.67257698155E+02  0.10566000000E+00 0. -1.
        994    1    1    2    0    0  0.19328363095E+02 -0.23014274567E+02  0.86552217397E+01  0.17403331669E+03  0.17120000000E+03 0.  0.
        998    1    1    2    0    0 -0.17372273207E+01  0.21538917528E+01  0.14298713399E+04  0.14299089852E+04  0.10000000000E+02 0. -1.
</event>
<event>
 5    1  0.1533416E-008  0.3835872E+03  0.7957747E-01  0.3435686E+00
         13   -1    0    0    0    0  0.00000000000E+00  0.00000000000E+00  0.14999999963E+04  0.15000000000E+04  0.10566000000E+00 0. -1.
        994   -1    0    0    0    0 -0.00000000000E+00 -0.00000000000E+00  0.11368683772E-12  0.17120000000E+03  0.17120000000E+03 0.  0.
         13    1    1    2    0    0 -0.10353438590E+02 -0.56991257897E+01  0.27738518117E+02  0.30151455632E+02  0.10566000000E+00 0. -1.
        994    1    1    2    0    0  0.18372988355E+02  0.12502757467E+02  0.39666097137E+01  0.17268196095E+03  0.17120000000E+03 0.  0.
        998    1    1    2    0    0 -0.80195497655E+01 -0.68036316777E+01  0.14682948684E+04  0.14683665834E+04  0.10000000000E+02 0. -1.
</event>
<event>
 5    1  0.1533416E-008  0.3848997E+03  0.7957747E-01  0.3430098E+00
         13   -1    0    0    0    0  0.00000000000E+00  0.00000000000E+00  0.14999999963E+04  0.15000000000E+04  0.10566000000E+00 0. -1.
        994   -1    0    0    0    0 -0.00000000000E+00 -0.00000000000E+00  0.11368683772E-12  0.17120000000E+03  0.17120000000E+03 0.  0.
         13    1    1    2    0    0 -0.12564863577E+02 -0.10760057950E+02  0.93001802190E+02  0.94461637814E+02  0.10566000000E+00 0. -1.
        994    1    1    2    0    0 -0.68201791403E+01 -0.22190190521E+01  0.18491969336E+01  0.17136014244E+03  0.17120000000E+03 0.  0.
        998    1    1    2    0    0  0.19385042718E+02  0.12979077002E+02  0.14051489972E+04  0.14053782197E+04  0.10000000000E+02 0. -1.
</event>
<event>
 5    1  0.1533416E-008  0.3764547E+03  0.7957747E-01  0.3466742E+00
         13   -1    0    0    0    0  0.00000000000E+00  0.00000000000E+00  0.14999999963E+04  0.15000000000E+04  0.10566000000E+00 0. -1.
        994   -1    0    0    0    0 -0.00000000000E+00 -0.00000000000E+00  0.11368683772E-12  0.17120000000E+03  0.17120000000E+03 0.  0.
         13    1    1    2    0    0  0.62165235158E+02  0.87265301131E+01  0.12653776094E+03  0.14125326509E+03  0.10566000000E+00 0. -1.
        994    1    1    2    0    0 -0.51152516766E+02 -0.11013978323E+02  0.24252447292E+02  0.18065300687E+03  0.17120000000E+03 0.  0.
        998    1    1    2    0    0 -0.11012718392E+02  0.22874482095E+01  0.13492097880E+04  0.13492937280E+04  0.10000000000E+02 0. -1.
</event>
<event>
 5    1  0.1533416E-008  0.3809468E+03  0.7957747E-01  0.3447046E+00
         13   -1    0    0    0    0  0.00000000000E+00  0.00000000000E+00  0.14999999963E+04  0.15000000000E+04  0.10566000000E+00 0.  1.
        994   -1    0    0    0    0 -0.00000000000E+00 -0.00000000000E+00  0.11368683772E-12  0.17120000000E+03  0.17120000000E+03 0.  0.
         13    1    1    2    0    0 -0.79088060848E+00 -0.19090372044E+02  0.49934089785E+02  0.53464869621E+02  0.10566000000E+00 0.  1.
        994    1    1    2    0    0 -0.62898915835E+01  0.59391597802E+01  0.39053852728E+01  0.17146290674E+03  0.17120000000E+03 0.  0.
        998    1    1    2    0    0  0.70807721920E+01  0.13151212264E+02  0.14461605212E+04  0.14462722236E+04  0.10000000000E+02 0.  1.
</event>
<event>
 5    1  0.1533416E-008  0.3841503E+03  0.7957747E-01  0.3433284E+00
         13   -1    0    0    0    0  0.00000000000E+00  0.00000000000E+00  0.14999999963E+04  0.15000000000E+04  0.10566000000E+00 0.  1.
        994   -1    0    0    0    0 -0.00000000000E+00 -0.00000000000E+00  0.11368683772E-12  0.17120000000E+03  0.17120000000E+03 0.  0.
         13    1    1    2    0    0 -0.15517710457E+02  0.42817072565E+01  0.63081517463E+02  0.65103159404E+02  0.10566000000E+00 0.  1.
        994    1    1    2    0    0  0.86191593408E+01 -0.47975406026E+01  0.23735505804E+01  0.17150037914E+03  0.17120000000E+03 0.  0.
        998    1    1    2    0    0  0.68985511160E+01  0.51583334616E+00  0.14345449282E+04  0.14345964615E+04  0.10000000000E+02 0.  1.
</event>
<event>
 5    1  0.1533416E-008  0.3723767E+03  0.7957747E-01  0.3485039E+00
         13   -1    0    0    0    0  0.00000000000E+00  0.00000000000E+00  0.14999999963E+04  0.15000000000E+04  0.10566000000E+00 0.  1.
        994   -1    0    0    0    0 -0.00000000000E+00 -0.00000000000E+00  0.11368683772E-12  0.17120000000E+03  0.17120000000E+03 0.  0.
         13    1    1    2    0    0  0.92214251801E+00 -0.23906455393E+02  0.31701626690E+02  0.39716158615E+02  0.10566000000E+00 0.  1.
        994    1    1    2    0    0  0.18575492784E+01  0.24231185541E+02  0.10060185026E+02  0.17320868386E+03  0.17120000000E+03 0.  0.
        998    1    1    2    0    0 -0.27796917964E+01 -0.32473014787E+00  0.14582381846E+04  0.14582751575E+04  0.10000000000E+02 0.  1.
</event>
<event>
 5    1  0.1533416E-008  0.3778846E+03  0.7957747E-01  0.3460422E+00
         13   -1    0    0    0    0  0.00000000000E+00  0.00000000000E+00  0.14999999963E+04  0.15000000000E+04  0.10566000000E+00 0. -1.
        994   -1    0    0    0    0 -0.00000000000E+00 -0.00000000000E+00  0.11368683772E-12  0.17120000000E+03  0.17120000000E+03 0.  0.
         13    1    1    2    0    0 -0.10704216065E+02 -0.10806291940E+02  0.20187493486E+02  0.25276515669E+02  0.10566000000E+00 0. -1.
        994    1    1    2    0    0  0.35660560763E+01  0.67426088941E+01  0.54007218324E+01  0.17145491339E+03  0.17120000000E+03 0.  0.
        998    1    1    2    0    0  0.71381599884E+01  0.40636830464E+01  0.14744117810E+04  0.14744685709E+04  0.10000000000E+02 0. -1.
</event>
<event>
 5    1  0.1533416E-008  0.3800749E+03  0.7957747E-01  0.3450832E+00
         13   -1    0    0    0    0  0.00000000000E+00  0.00000000000E+00  0.14999999963E+04  0.15000000000E+04  0.10566000000E+00 0.  1.
        994   -1    0    0    0    0 -0.00000000000E+00 -0.00000000000E+00  0.11368683772E-12  0.17120000000E+03  0.17120000000E+03 0.  0.
         13    1    1    2    0    0  0.11998830579E+02 -0.17681415939E+02  0.54222423424E+02  0.58281101319E+02  0.10566000000E+00 0.  1.
        994    1    1    2    0    0 -0.61669548074E+01  0.12630242686E+02  0.47558484493E+01  0.17184182394E+03  0.17120000000E+03 0.  0.
        998    1    1    2    0    0 -0.58318757717E+01  0.50511732537E+01  0.14410217244E+04  0.14410770747E+04  0.10000000000E+02 0.  1.
</event>
<event>
 5    1  0.1533416E-008  0.3795020E+03  0.7957747E-01  0.3453330E+00
         13   -1    0    0    0    0  0.00000000000E+00  0.00000000000E+00  0.14999999963E+04  0.15000000000E+04  0.10566000000E+00 0. -1.
        994   -1    0    0    0    0 -0.00000000000E+00 -0.00000000000E+00  0.11368683772E-12  0.17120000000E+03  0.17120000000E+03 0.  0.
         13    1    1    2    0    0 -0.43224943853E+01 -0.20970046321E+02  0.46903359022E+02  0.51559315861E+02  0.10566000000E+00 0. -1.
        994    1    1    2    0    0 -0.12180810086E+02  0.38603222788E+02  0.98909928616E+01  0.17619833337E+03  0.17120000000E+03 0.  0.
        998    1    1    2    0    0  0.16503304471E+02 -0.17633176467E+02  0.14432056444E+04  0.14434423508E+04  0.10000000000E+02 0. -1.
</event>
<event>
 5    1  0.1533416E-008  0.3853279E+03  0.7957747E-01  0.3428283E+00
         13   -1    0    0    0    0  0.00000000000E+00  0.00000000000E+00  0.14999999963E+04  0.15000000000E+04  0.10566000000E+00 0. -1.
        994   -1    0    0    0    0 -0.00000000000E+00 -0.00000000000E+00  0.11368683772E-12  0.17120000000E+03  0.17120000000E+03 0.  0.
         13    1    1    2    0    0  0.13439309826E+02  0.21317099491E+01  0.67121178687E+02  0.68486663141E+02  0.10566000000E+00 0. -1.
        994    1    1    2    0    0 -0.73887341391E+00  0.19566636370E+01  0.14817783137E+01  0.17121918740E+03  0.17120000000E+03 0.  0.
        998    1    1    2    0    0 -0.12700436412E+02 -0.40883735862E+01  0.14313970393E+04  0.14314941495E+04  0.10000000000E+02 0. -1.
</event>
<event>
 5    1  0.1533416E-008  0.3891350E+03  0.7957747E-01  0.3412322E+00
         13   -1    0    0    0    0  0.00000000000E+00  0.00000000000E+00  0.14999999963E+04  0.15000000000E+04  0.10566000000E+00 0. -1.
        994   -1    0    0    0    0 -0.00000000000E+00 -0.00000000000E+00  0.11368683772E-12  0.17120000000E+03  0.17120000000E+03 0.  0.
         13    1    1    2    0    0 -0.37275592645E+02  0.31406104299E+02  0.47336307569E+02  0.67945201247E+02  0.10566000000E+00 0. -1.
        994    1    1    2    0    0  0.25630824595E+02 -0.29587492682E+02  0.27205814097E+02  0.17771312617E+03  0.17120000000E+03 0.  0.
        998    1    1    2    0    0  0.11644768049E+02 -0.18186116176E+01  0.14254578746E+04  0.14255416726E+04  0.10000000000E+02 0. -1.
</event>
<event>
 5    1  0.1533416E-008  0.3852310E+03  0.7957747E-01  0.3428693E+00
         13   -1    0    0    0    0  0.00000000000E+00  0.00000000000E+00  0.14999999963E+04  0.15000000000E+04  0.10566000000E+00 0.  1.
        994   -1    0    0    0    0 -0.00000000000E+00 -0.00000000000E+00  0.11368683772E-12  0.17120000000E+03  0.17120000000E+03 0.  0.
         13    1    1    2    0    0 -0.48677018218E+01  0.89579402606E+01  0.35301074504E+02  0.36743927933E+02  0.10566000000E+00 0.  1.
        994    1    1    2    0    0 -0.27191208259E+01 -0.20961166216E+01  0.15542569520E+01  0.17124147581E+03  0.17120000000E+03 0.  0.
        998    1    1    2    0    0  0.75868226477E+01 -0.68618236391E+01  0.14631446648E+04  0.14632145963E+04  0.10000000000E+02 0.  1.
</event>
<event>
 5    1  0.1533416E-008  0.3705080E+03  0.7957747E-01  0.3493560E+00
         13   -1    0    0    0    0  0.00000000000E+00  0.00000000000E+00  0.14999999963E+04  0.15000000000E+04  0.10566000000E+00 0.  1.
        994   -1    0    0    0    0 -0.00000000000E+00 -0.00000000000E+00  0.11368683772E-12  0.17120000000E+03  0.17120000000E+03 0.  0.
         13    1    1    2    0    0  0.32059831260E+02 -0.19304016150E+02  0.64485764732E+02  0.74558050116E+02  0.10566000000E+00 0.  1.
        994    1    1    2    0    0 -0.54446333051E+02  0.42729323993E+02  0.25724049203E+02  0.18644399969E+03  0.17120000000E+03 0.  0.
        998    1    1    2    0    0  0.22386501790E+02 -0.23425307843E+02  0.14097901823E+04  0.14101979502E+04  0.10000000000E+02 0.  1.
</event>
<event>
 5    1  0.1533416E-008  0.3715847E+03  0.7957747E-01  0.3488640E+00
         13   -1    0    0    0    0  0.00000000000E+00  0.00000000000E+00  0.14999999963E+04  0.15000000000E+04  0.10566000000E+00 0. -1.
        994   -1    0    0    0    0 -0.00000000000E+00 -0.00000000000E+00  0.11368683772E-12  0.17120000000E+03  0.17120000000E+03 0.  0.
         13    1    1    2    0    0  0.10846407060E+02 -0.73841863156E-01  0.29939166210E+01  0.11252764083E+02  0.10566000000E+00 0. -1.
        994    1    1    2    0    0 -0.12863834615E+02  0.38143179873E+01  0.90624518416E+01  0.17196393603E+03  0.17120000000E+03 0.  0.
        998    1    1    2    0    0  0.20174275548E+01 -0.37404761242E+01  0.14879436278E+04  0.14879832999E+04  0.10000000000E+02 0. -1.
</event>
<event>
 5    1  0.1533416E-008  0.3789887E+03  0.7957747E-01  0.3455574E+00
         13   -1    0    0    0    0  0.00000000000E+00  0.00000000000E+00  0.14999999963E+04  0.15000000000E+04  0.10566000000E+00 0.  1.
        994   -1    0    0    0    0 -0.00000000000E+00 -0.00000000000E+00  0.11368683772E-12  0.17120000000E+03  0.17120000000E+03 0.  0.
         13    1    1    2    0    0  0.63239316646E+02 -0.42718691638E-01  0.33328748199E+03  0.33923409293E+03  0.10566000000E+00 0.  1.
        994    1    1    2    0    0 -0.67590450645E+02  0.44418500082E+02  0.26908046093E+02  0.19124579763E+03  0.17120000000E+03 0.  0.
        998    1    1    2    0    0  0.43511339990E+01 -0.44375781390E+02  0.11398044682E+04  0.11407201094E+04  0.10000000000E+02 0.  1.
</event>
<event>
 5    1  0.1533416E-008  0.3814619E+03  0.7957747E-01  0.3444818E+00
         13   -1    0    0    0    0  0.00000000000E+00  0.00000000000E+00  0.14999999963E+04  0.15000000000E+04  0.10566000000E+00 0. -1.
        994   -1    0    0    0    0 -0.00000000000E+00 -0.00000000000E+00  0.11368683772E-12  0.17120000000E+03  0.17120000000E+03 0.  0.
         13    1    1    2    0    0  0.12189860199E+02  0.13064643079E+02  0.45380043309E+02  0.48771273155E+02  0.10566000000E+00 0. -1.
        994    1    1    2    0    0 -0.12962676584E+02 -0.71421903657E+01  0.41260561422E+01  0.17188806301E+03  0.17120000000E+03 0.  0.
        998    1    1    2    0    0  0.77281638475E+00 -0.59224527135E+01  0.14504938968E+04  0.14505406638E+04  0.10000000000E+02 0. -1.
</event>
<event>
 5    1  0.1533416E-008  0.3846445E+03  0.7957747E-01  0.3431181E+00
         13   -1    0    0    0    0  0.00000000000E+00  0.00000000000E+00  0.14999999963E+04  0.15000000000E+04  0.10566000000E+00 0.  1.
        994   -1    0    0    0    0 -0.00000000000E+00 -0.00000000000E+00  0.11368683772E-12  0.17120000000E+03  0.17120000000E+03 0.  0.
         13    1    1    2    0    0 -0.61590152033E+01 -0.90856550926E+01  0.31073541041E+02  0.32955404923E+02  0.10566000000E+00 0.  1.
        994    1    1    2    0    0  0.16342256207E+02  0.14992843282E+02  0.34278046986E+01  0.17266454336E+03  0.17120000000E+03 0.  0.
        998    1    1    2    0    0 -0.10183241004E+02 -0.59071881898E+01  0.14654986505E+04  0.14655800517E+04  0.10000000000E+02 0.  1.
</event>
<event>
 5    1  0.1533416E-008  0.3795529E+03  0.7957747E-01  0.3453108E+00
         13   -1    0    0    0    0  0.00000000000E+00  0.00000000000E+00  0.14999999963E+04  0.15000000000E+04  0.10566000000E+00 0. -1.
        994   -1    0    0    0    0 -0.00000000000E+00 -0.00000000000E+00  0.11368683772E-12  0.17120000000E+03  0.17120000000E+03 0.  0.
         13    1    1    2    0    0  0.48780658875E+01  0.18259931044E+02  0.40494609567E+02  0.44688311409E+02  0.10566000000E+00 0. -1.
        994    1    1    2    0    0  0.11439420963E+01 -0.40736130425E+01  0.44189534906E+01  0.17130928193E+03  0.17120000000E+03 0.  0.
        998    1    1    2    0    0 -0.60220079837E+01 -0.14186318001E+02  0.14550864332E+04  0.14552024067E+04  0.10000000000E+02 0. -1.
</event>
<event>
 5    1  0.1533416E-008  0.3832939E+03  0.7957747E-01  0.3436940E+00
         13   -1    0    0    0    0  0.00000000000E+00  0.00000000000E+00  0.14999999963E+04  0.15000000000E+04  0.10566000000E+00 0. -1.
        994   -1    0    0    0    0 -0.00000000000E+00 -0.00000000000E+00  0.11368683772E-12  0.17120000000E+03  0.17120000000E+03 0.  0.
         13    1    1    2    0    0  0.17270594433E+02  0.20116734065E+02  0.15431508303E+03  0.15657621925E+03  0.10566000000E+00 0. -1.
        994    1    1    2    0    0 -0.67599257015E+01 -0.87188784368E+00  0.26332128613E+01  0.17135585953E+03  0.17120000000E+03 0.  0.
        998    1    1    2    0    0 -0.10510668732E+02 -0.19244846222E+02  0.13430517004E+04  0.13432679212E+04  0.10000000000E+02 0. -1.
</event>
<event>
 5    1  0.1533416E-008  0.3839967E+03  0.7957747E-01  0.3433939E+00
         13   -1    0    0    0    0  0.00000000000E+00  0.00000000000E+00  0.14999999963E+04  0.15000000000E+04  0.10566000000E+00 0.  1.
        994   -1    0    0    0    0 -0.00000000000E+00 -0.00000000000E+00  0.11368683772E-12  0.17120000000E+03  0.17120000000E+03 0.  0.
         13    1    1    2    0    0 -0.16685151980E+02  0.93540471486E+01  0.89426072099E+02  0.91449035149E+02  0.10566000000E+00 0.  1.
        994    1    1    2    0    0  0.47799462515E+01 -0.24650032721E+01  0.22245249659E+01  0.17129889853E+03  0.17120000000E+03 0.  0.
        998    1    1    2    0    0  0.11905205728E+02 -0.68890438765E+01  0.14083493992E+04  0.14084520663E+04  0.10000000000E+02 0.  1.
</event>
<event>
 5    1  0.1533416E-008  0.3822147E+03  0.7957747E-01  0.3441572E+00
         13   -1    0    0    0    0  0.00000000000E+00  0.00000000000E+00  0.14999999963E+04  0.15000000000E+04  0.10566000000E+00 0. -1.
        994   -1    0    0    0    0 -0.00000000000E+00 -0.00000000000E+00  0.11368683772E-12  0.17120000000E+03  0.17120000000E+03 0.  0.
         13    1    1    2    0    0  0.22471439540E+02 -0.13091109427E+02  0.11870411356E+03  0.12151963002E+03  0.10566000000E+00 0. -1.
        994    1    1    2    0    0 -0.74393319043E+01 -0.16365227428E+01  0.32119334253E+01  0.17139947019E+03  0.17120000000E+03 0.  0.
        998    1    1    2    0    0 -0.15032107636E+02  0.14727632169E+02  0.13780839493E+04  0.13782808998E+04  0.10000000000E+02 0. -1.
</event>
<event>
 5    1  0.1533416E-008  0.3777099E+03  0.7957747E-01  0.3461191E+00
         13   -1    0    0    0    0  0.00000000000E+00  0.00000000000E+00  0.14999999963E+04  0.15000000000E+04  0.10566000000E+00 0.  1.
        994   -1    0    0    0    0 -0.00000000000E+00 -0.00000000000E+00  0.11368683772E-12  0.17120000000E+03  0.17120000000E+03 0.  0.
         13    1    1    2    0    0  0.18836983346E+02  0.20304838924E+02  0.69384961034E+02  0.74708784001E+02  0.10566000000E+00 0.  1.
        994    1    1    2    0    0 -0.13697994372E+02 -0.16686417402E+02  0.68651421550E+01  0.17269233264E+03  0.17120000000E+03 0.  0.
        998    1    1    2    0    0 -0.51389889737E+01 -0.36184215224E+01  0.14237498931E+04  0.14237988834E+04  0.10000000000E+02 0.  1.
</event>
<event>
 5    1  0.1533416E-008  0.3835193E+03  0.7957747E-01  0.3435977E+00
         13   -1    0    0    0    0  0.00000000000E+00  0.00000000000E+00  0.14999999963E+04  0.15000000000E+04  0.10566000000E+00 0.  1.
        994   -1    0    0    0    0 -0.00000000000E+00 -0.00000000000E+00  0.11368683772E-12  0.17120000000E+03  0.17120000000E+03 0.  0.
         13    1    1    2    0    0 -0.12617976838E+02 -0.21125715348E+02  0.13931715251E+03  0.14147363477E+03  0.10566000000E+00 0.  1.
        994    1    1    2    0    0 -0.32022619040E+01  0.62145886364E+01  0.25286127931E+01  0.17136134184E+03  0.17120000000E+03 0.  0.
        998    1    1    2    0    0  0.15820238742E+02  0.14911126712E+02  0.13581542310E+04  0.13583650234E+04  0.10000000000E+02 0.  1.
</event>
<event>
 5    1  0.1533416E-008  0.3789451E+03  0.7957747E-01  0.3455765E+00
         13   -1    0    0    0    0  0.00000000000E+00  0.00000000000E+00  0.14999999963E+04  0.15000000000E+04  0.10566000000E+00 0. -1.
        994   -1    0    0    0    0 -0.00000000000E+00 -0.00000000000E+00  0.11368683772E-12  0.17120000000E+03  0.17120000000E+03 0.  0.
         13    1    1    2    0    0  0.82393188129E+01  0.45439669410E+02  0.19647860423E+03  0.20183285911E+03  0.10566000000E+00 0. -1.
        994    1    1    2    0    0  0.20614770577E+02 -0.53519991894E+02  0.15781395655E+02  0.18123976039E+03  0.17120000000E+03 0.  0.
        998    1    1    2    0    0 -0.28854089390E+02  0.80803224847E+01  0.12877399964E+04  0.12881273805E+04  0.10000000000E+02 0. -1.
</event>
<event>
 5    1  0.1533416E-008  0.3780953E+03  0.7957747E-01  0.3459494E+00
         13   -1    0    0    0    0  0.00000000000E+00  0.00000000000E+00  0.14999999963E+04  0.15000000000E+04  0.10566000000E+00 0.  1.
        994   -1    0    0    0    0 -0.00000000000E+00 -0.00000000000E+00  0.11368683772E-12  0.17120000000E+03  0.17120000000E+03 0.  0.
         13    1    1    2    0    0 -0.57914595771E+01 -0.98250331318E+01  0.10450156621E+02  0.15468975969E+02  0.10566000000E+00 0.  1.
        994    1    1    2    0    0  0.94924418386E+01  0.55091308925E+01  0.55030804654E+01  0.17163968326E+03  0.17120000000E+03 0.  0.
        998    1    1    2    0    0 -0.37009822615E+01  0.43159022393E+01  0.14840467592E+04  0.14840913408E+04  0.10000000000E+02 0.  1.
</event>
<event>
 5    1  0.1533416E-008  0.3744275E+03  0.7957747E-01  0.3475787E+00
         13   -1    0    0    0    0  0.00000000000E+00  0.00000000000E+00  0.14999999963E+04  0.15000000000E+04  0.10566000000E+00 0. -1.
        994   -1    0    0    0    0 -0.00000000000E+00 -0.00000000000E+00  0.11368683772E-12  0.17120000000E+03  0.17120000000E+03 0.  0.
         13    1    1    2    0    0 -0.81815108397E+01  0.37620468486E+02  0.48262964400E+02  0.61737846298E+02  0.10566000000E+00 0. -1.
        994    1    1    2    0    0  0.17753706115E+02 -0.42171928068E+02  0.20771493485E+02  0.17842242163E+03  0.17120000000E+03 0.  0.
        998    1    1    2    0    0 -0.95721952749E+01  0.45514595820E+01  0.14309655384E+04  0.14310397321E+04  0.10000000000E+02 0. -1.
</event>
<event>
 5    1  0.1533416E-008  0.3736534E+03  0.7957747E-01  0.3479267E+00
         13   -1    0    0    0    0  0.00000000000E+00  0.00000000000E+00  0.14999999963E+04  0.15000000000E+04  0.10566000000E+00 0.  1.
        994   -1    0    0    0    0 -0.00000000000E+00 -0.00000000000E+00  0.11368683772E-12  0.17120000000E+03  0.17120000000E+03 0.  0.
         13    1    1    2    0    0  0.10716833109E+02  0.71087749305E+01  0.78048323326E+01  0.15043661943E+02  0.10566000000E+00 0.  1.
        994    1    1    2    0    0 -0.12150286384E+02 -0.52209077395E+01  0.79692465112E+01  0.17189484061E+03  0.17120000000E+03 0.  0.
        998    1    1    2    0    0  0.14334532753E+01 -0.18878671910E+01  0.14842259174E+04  0.14842614975E+04  0.10000000000E+02 0.  1.
</event>
<event>
 5    1  0.1533416E-008  0.3772168E+03  0.7957747E-01  0.3463368E+00
         13   -1    0    0    0    0  0.00000000000E+00  0.00000000000E+00  0.14999999963E+04  0.15000000000E+04  0.10566000000E+00 0.  1.
        994   -1    0    0    0    0 -0.00000000000E+00 -0.00000000000E+00  0.11368683772E-12  0.17120000000E+03  0.17120000000E+03 0.  0.
         13    1    1    2    0    0  0.95800410949E+01 -0.18994675500E+02  0.39832343551E+02  0.45157520321E+02  0.10566000000E+00 0.  1.
        994    1    1    2    0    0 -0.11161877179E+02 -0.10417765217E+01  0.59688819447E+01  0.17167044111E+03  0.17120000000E+03 0.  0.
        998    1    1    2    0    0  0.15818360846E+01  0.20036452021E+02  0.14541987708E+04  0.14543720386E+04  0.10000000000E+02 0.  1.
</event>
<event>
 5    1  0.1617968E-008  0.3851043E+03  0.7957747E-01  0.3429230E+00
         13   -1    0    0    0    0  0.00000000000E+00  0.00000000000E+00  0.14999999963E+04  0.15000000000E+04  0.10566000000E+00 0. -1.
        994   -1    0    0    0    0 -0.00000000000E+00 -0.00000000000E+00  0.11368683772E-12  0.17120000000E+03  0.17120000000E+03 0.  0.
         13    1    1    2    0    0 -0.11620916628E+02 -0.20035283736E+01  0.45687626621E+02  0.47185063522E+02  0.10566000000E+00 0. -1.
        994    1    1    2    0    0  0.14154067830E+01 -0.19343840193E+01  0.15972629514E+01  0.17122422862E+03  0.17120000000E+03 0.  0.
        998    1    1    2    0    0  0.10205509845E+02  0.39379123929E+01  0.14527151067E+04  0.14527907079E+04  0.10000000000E+02 0. -1.
</event>
<event>
 5    1  0.1533416E-008  0.3713117E+03  0.7957747E-01  0.3489884E+00
         13   -1    0    0    0    0  0.00000000000E+00  0.00000000000E+00  0.14999999963E+04  0.15000000000E+04  0.10566000000E+00 0.  1.
        994   -1    0    0    0    0 -0.00000000000E+00 -0.00000000000E+00  0.11368683772E-12  0.17120000000E+03  0.17120000000E+03 0.  0.
         13    1    1    2    0    0 -0.26127195630E+01 -0.39515763998E+02  0.61464379514E+02  0.73117733970E+02  0.10566000000E+00 0.  1.
        994    1    1    2    0    0  0.21696975717E+01  0.35448455895E+02  0.16076861021E+02  0.17558247655E+03  0.17120000000E+03 0.  0.
        998    1    1    2    0    0  0.44302199126E+00  0.40673081028E+01  0.14224587557E+04  0.14224997895E+04  0.10000000000E+02 0.  1.
</event>
<event>
 5    1  0.1533416E-008  0.3691188E+03  0.7957747E-01  0.3499951E+00
         13   -1    0    0    0    0  0.00000000000E+00  0.00000000000E+00  0.14999999963E+04  0.15000000000E+04  0.10566000000E+00 0. -1.
        994   -1    0    0    0    0 -0.00000000000E+00 -0.00000000000E+00  0.11368683772E-12  0.17120000000E+03  0.17120000000E+03 0.  0.
         13    1    1    2    0    0  0.60650604189E+02 -0.76683496521E+02  0.33938580859E+03  0.35318775838E+03  0.10566000000E+00 0. -1.
        994    1    1    2    0    0 -0.51698391857E+02  0.10057280906E+03  0.55488001936E+02  0.21254639964E+03  0.17120000000E+03 0.  0.
        998    1    1    2    0    0 -0.89522123315E+01 -0.23889312537E+02  0.11051261857E+04  0.11054658420E+04  0.10000000000E+02 0. -1.
</event>
<event>
 5    1  0.1533416E-008  0.3706564E+03  0.7957747E-01  0.3492879E+00
         13   -1    0    0    0    0  0.00000000000E+00  0.00000000000E+00  0.14999999963E+04  0.15000000000E+04  0.10566000000E+00 0.  1.
        994   -1    0    0    0    0 -0.00000000000E+00 -0.00000000000E+00  0.11368683772E-12  0.17120000000E+03  0.17120000000E+03 0.  0.
         13    1    1    2    0    0 -0.44577292991E+02  0.10735650199E+02  0.86817321449E+02  0.98181707579E+02  0.10566000000E+00 0.  1.
        994    1    1    2    0    0  0.36522507617E+02 -0.90214796292E+01  0.16261854989E+02  0.17603740678E+03  0.17120000000E+03 0.  0.
        998    1    1    2    0    0  0.80547853733E+01 -0.17141705695E+01  0.13969208198E+04  0.13969808856E+04  0.10000000000E+02 0.  1.
</event>
<event>
 5    1  0.1533416E-008  0.3815267E+03  0.7957747E-01  0.3444538E+00
         13   -1    0    0    0    0  0.00000000000E+00  0.00000000000E+00  0.14999999963E+04  0.15000000000E+04  0.10566000000E+00 0.  1.
        994   -1    0    0    0    0 -0.00000000000E+00 -0.00000000000E+00  0.11368683772E-12  0.17120000000E+03  0.17120000000E+03 0.  0.
         13    1    1    2    0    0  0.15000057572E+02 -0.15193182631E+02  0.70218283627E+02  0.73392459048E+02  0.10566000000E+00 0.  1.
        994    1    1    2    0    0  0.34265688463E+01  0.69702726231E+01  0.35651326555E+01  0.17141317407E+03  0.17120000000E+03 0.  0.
        998    1    1    2    0    0 -0.18426626419E+02  0.82229100080E+01  0.14262165800E+04  0.14263943669E+04  0.10000000000E+02 0.  1.
</event>
<event>
 5    1  0.1533416E-008  0.3851800E+03  0.7957747E-01  0.3428909E+00
         13   -1    0    0    0    0  0.00000000000E+00  0.00000000000E+00  0.14999999963E+04  0.15000000000E+04  0.10566000000E+00 0.  1.
        994   -1    0    0    0    0 -0.00000000000E+00 -0.00000000000E+00  0.11368683772E-12  0.17120000000E+03  0.17120000000E+03 0.  0.
         13    1    1    2    0    0  0.10639158912E+02  0.34218300605E+01  0.39242620198E+02  0.40803125215E+02  0.10566000000E+00 0.  1.
        994    1    1    2    0    0 -0.12430485924E+02 -0.60543290630E+01  0.21693773254E+01  0.17177112120E+03  0.17120000000E+03 0.  0.
        998    1    1    2    0    0  0.17913270115E+01  0.26324990025E+01  0.14585879988E+04  0.14586257536E+04  0.10000000000E+02 0.  1.
</event>
<event>
 5    1  0.1533416E-008  0.3721873E+03  0.7957747E-01  0.3485898E+00
         13   -1    0    0    0    0  0.00000000000E+00  0.00000000000E+00  0.14999999963E+04  0.15000000000E+04  0.10566000000E+00 0.  1.
        994   -1    0    0    0    0 -0.00000000000E+00 -0.00000000000E+00  0.11368683772E-12  0.17120000000E+03  0.17120000000E+03 0.  0.
         13    1    1    2    0    0 -0.26535802787E+02 -0.60424641137E+02  0.17006298559E+03  0.18241906786E+03  0.10566000000E+00 0.  1.
        994    1    1    2    0    0  0.48924716962E+02  0.31533647038E+02  0.24133494123E+02  0.18242769626E+03  0.17120000000E+03 0.  0.
        998    1    1    2    0    0 -0.22388914175E+02  0.28890994099E+02  0.13058035166E+04  0.13063532359E+04  0.10000000000E+02 0.  1.
</event>
<event>
 5    1  0.1533416E-008  0.3811437E+03  0.7957747E-01  0.3446194E+00
         13   -1    0    0    0    0  0.00000000000E+00  0.00000000000E+00  0.14999999963E+04  0.15000000000E+04  0.10566000000E+00 0. -1.
        994   -1    0    0    0    0 -0.00000000000E+00 -0.00000000000E+00  0.11368683772E-12  0.17120000000E+03  0.17120000000E+03 0.  0.
         13    1    1    2    0    0 -0.34259387599E+01 -0.99919450458E+01  0.14185931545E+02  0.17686939815E+02  0.10566000000E+00 0. -1.
        994    1    1    2    0    0  0.18735035934E+01  0.70951451572E+01  0.37363167428E+01  0.17139793220E+03  0.17120000000E+03 0.  0.
        998    1    1    2    0    0  0.15524351666E+01  0.28967998886E+01  0.14820777480E+04  0.14821151280E+04  0.10000000000E+02 0. -1.
</event>
<event>
 5    1  0.1533416E-008  0.3714462E+03  0.7957747E-01  0.3489271E+00
         13   -1    0    0    0    0  0.00000000000E+00  0.00000000000E+00  0.14999999963E+04  0.15000000000E+04  0.10566000000E+00 0.  1.
        994   -1    0    0    0    0 -0.00000000000E+00 -0.00000000000E+00  0.11368683772E-12  0.17120000000E+03  0.17120000000E+03 0.  0.
         13    1    1    2    0    0  0.80154332121E+02  0.76163416688E+02  0.45948818302E+03  0.47260446940E+03  0.10566000000E+00 0.  1.
        994    1    1    2    0    0 -0.84492652941E+02 -0.79122258173E+02  0.56128725683E+02  0.21414764530E+03  0.17120000000E+03 0.  0.
        998    1    1    2    0    0  0.43383208193E+01  0.29588414851E+01  0.98438308758E+03  0.98444788531E+03  0.10000000000E+02 0.  1.
</event>
<event>
 5    1  0.1533416E-008  0.3727782E+03  0.7957747E-01  0.3483220E+00
         13   -1    0    0    0    0  0.00000000000E+00  0.00000000000E+00  0.14999999963E+04  0.15000000000E+04  0.10566000000E+00 0.  1.
        994   -1    0    0    0    0 -0.00000000000E+00 -0.00000000000E+00  0.11368683772E-12  0.17120000000E+03  0.17120000000E+03 0.  0.
         13    1    1    2    0    0  0.90284856450E+01 -0.17309404971E+03  0.64498147971E+03  0.66786539357E+03  0.10566000000E+00 0.  1.
        994    1    1    2    0    0 -0.44218858627E+02  0.20187628487E+03  0.17204402405E+03  0.31877567044E+03  0.17120000000E+03 0.  0.
        998    1    1    2    0    0  0.35190372982E+02 -0.28782235158E+02  0.68297449252E+03  0.68455893599E+03  0.10000000000E+02 0.  1.
</event>
<event>
 5    1  0.1533416E-008  0.3792988E+03  0.7957747E-01  0.3454217E+00
         13   -1    0    0    0    0  0.00000000000E+00  0.00000000000E+00  0.14999999963E+04  0.15000000000E+04  0.10566000000E+00 0. -1.
        994   -1    0    0    0    0 -0.00000000000E+00 -0.00000000000E+00  0.11368683772E-12  0.17120000000E+03  0.17120000000E+03 0.  0.
         13    1    1    2    0    0  0.21078319025E+02  0.21243057036E+01  0.49507627126E+02  0.53850018712E+02  0.10566000000E+00 0. -1.
        994    1    1    2    0    0 -0.56780810487E+01 -0.14521292148E+02  0.53025060164E+01  0.17199030525E+03  0.17120000000E+03 0.  0.
        998    1    1    2    0    0 -0.15400237976E+02  0.12396986445E+02  0.14451898631E+04  0.14453596760E+04  0.10000000000E+02 0. -1.
</event>
<event>
 5    1  0.1533416E-008  0.2710476E+03  0.7957747E-01  0.4127179E+00
         13   -1    0    0    0    0  0.00000000000E+00  0.00000000000E+00  0.14999999963E+04  0.15000000000E+04  0.10566000000E+00 0. -1.
        994   -1    0    0    0    0 -0.00000000000E+00 -0.00000000000E+00  0.11368683772E-12  0.17120000000E+03  0.17120000000E+03 0.  0.
         13    1    1    2    0    0 -0.11054967253E+02  0.17798958355E+03  0.47971227070E+03  0.51178743437E+03  0.10566000000E+00 0. -1.
        994    1    1    2    0    0  0.60572295670E+02 -0.14657492842E+03  0.12999669480E+03  0.26713628226E+03  0.17120000000E+03 0.  0.
        998    1    1    2    0    0 -0.49517328417E+02 -0.31414655136E+02  0.89029103078E+03  0.89227628336E+03  0.10000000000E+02 0. -1.
</event>
<event>
 5    1  0.1578506E-008  0.3862148E+03  0.7957747E-01  0.3424537E+00
         13   -1    0    0    0    0  0.00000000000E+00  0.00000000000E+00  0.14999999963E+04  0.15000000000E+04  0.10566000000E+00 0. -1.
        994   -1    0    0    0    0 -0.00000000000E+00 -0.00000000000E+00  0.11368683772E-12  0.17120000000E+03  0.17120000000E+03 0.  0.
         13    1    1    2    0    0  0.10079601890E+02 -0.52013853284E+01  0.66118164043E+02  0.67084093227E+02  0.10566000000E+00 0. -1.
        994    1    1    2    0    0 -0.30501397769E+00  0.51780733928E+01  0.11163627297E+01  0.17128219914E+03  0.17120000000E+03 0.  0.
        998    1    1    2    0    0 -0.97745879124E+01  0.23311935594E-01  0.14327654695E+04  0.14328337076E+04  0.10000000000E+02 0. -1.
</event>
<event>
 5    1  0.1533416E-008  0.3771002E+03  0.7957747E-01  0.3463883E+00
         13   -1    0    0    0    0  0.00000000000E+00  0.00000000000E+00  0.14999999963E+04  0.15000000000E+04  0.10566000000E+00 0. -1.
        994   -1    0    0    0    0 -0.00000000000E+00 -0.00000000000E+00  0.11368683772E-12  0.17120000000E+03  0.17120000000E+03 0.  0.
         13    1    1    2    0    0 -0.27195734314E+01 -0.32119030317E+02  0.94164324522E+02  0.99528686140E+02  0.10566000000E+00 0. -1.
        994    1    1    2    0    0  0.60968722254E+01  0.10836400728E+02  0.61261493398E+01  0.17176020825E+03  0.17120000000E+03 0.  0.
        998    1    1    2    0    0 -0.33772987940E+01  0.21282629589E+02  0.13997095224E+04  0.13999111056E+04  0.10000000000E+02 0. -1.
</event>
<event>
 5    1  0.1533416E-008  0.3839554E+03  0.7957747E-01  0.3434115E+00
         13   -1    0    0    0    0  0.00000000000E+00  0.00000000000E+00  0.14999999963E+04  0.15000000000E+04  0.10566000000E+00 0. -1.
        994   -1    0    0    0    0 -0.00000000000E+00 -0.00000000000E+00  0.11368683772E-12  0.17120000000E+03  0.17120000000E+03 0.  0.
         13    1    1    2    0    0 -0.10137521741E+02  0.21768686288E+02  0.10904095735E+03  0.11165386958E+03  0.10566000000E+00 0. -1.
        994    1    1    2    0    0  0.63343842444E+01 -0.45885510700E+02  0.92621687333E+01  0.17759738817E+03  0.17120000000E+03 0.  0.
        998    1    1    2    0    0  0.38031374962E+01  0.24116824412E+02  0.13816968702E+04  0.13819487422E+04  0.10000000000E+02 0. -1.
</event>
<event>
 5    1  0.1533416E-008  0.3841435E+03  0.7957747E-01  0.3433313E+00
         13   -1    0    0    0    0  0.00000000000E+00  0.00000000000E+00  0.14999999963E+04  0.15000000000E+04  0.10566000000E+00 0. -1.
        994   -1    0    0    0    0 -0.00000000000E+00 -0.00000000000E+00  0.11368683772E-12  0.17120000000E+03  0.17120000000E+03 0.  0.
         13    1    1    2    0    0 -0.16688671192E+02  0.34514009279E+02  0.20295182714E+03  0.20654099808E+03  0.10566000000E+00 0. -1.
        994    1    1    2    0    0  0.27434021893E+02 -0.79482282775E+02  0.25730767616E+02  0.19246186956E+03  0.17120000000E+03 0.  0.
        998    1    1    2    0    0 -0.10745350701E+02  0.44968273496E+02  0.12713174015E+04  0.12721971324E+04  0.10000000000E+02 0. -1.
</event>
<event>
 5    1  0.2532373E-008  0.3863009E+03  0.7957747E-01  0.3424174E+00
         13   -1    0    0    0    0  0.00000000000E+00  0.00000000000E+00  0.14999999963E+04  0.15000000000E+04  0.10566000000E+00 0.  1.
        994   -1    0    0    0    0 -0.00000000000E+00 -0.00000000000E+00  0.11368683772E-12  0.17120000000E+03  0.17120000000E+03 0.  0.
         13    1    1    2    0    0  0.51062699804E+01  0.90991836341E+01  0.57675765151E+02  0.58612065189E+02  0.10566000000E+00 0.  1.
        994    1    1    2    0    0 -0.19235295942E+00 -0.40302304161E+01  0.10389681900E+01  0.17125069113E+03  0.17120000000E+03 0.  0.
        998    1    1    2    0    0 -0.49139170209E+01 -0.50689532179E+01  0.14412852629E+04  0.14413372437E+04  0.10000000000E+02 0.  1.
</event>
<event>
 5    1  0.1533416E-008  0.3840328E+03  0.7957747E-01  0.3433785E+00
         13   -1    0    0    0    0  0.00000000000E+00  0.00000000000E+00  0.14999999963E+04  0.15000000000E+04  0.10566000000E+00 0. -1.
        994   -1    0    0    0    0 -0.00000000000E+00 -0.00000000000E+00  0.11368683772E-12  0.17120000000E+03  0.17120000000E+03 0.  0.
         13    1    1    2    0    0  0.11662429566E+01 -0.82547192622E+02  0.48327729369E+03  0.49027783235E+03  0.10566000000E+00 0. -1.
        994    1    1    2    0    0 -0.22864797989E+01  0.13454818061E+03  0.64333023394E+02  0.22706082620E+03  0.17120000000E+03 0.  0.
        998    1    1    2    0    0  0.11202368423E+01 -0.52000987986E+02  0.95238967919E+03  0.95386134145E+03  0.10000000000E+02 0. -1.
</event>
<event>
 5    1  0.1533416E-008  0.3827523E+03  0.7957747E-01  0.3439261E+00
         13   -1    0    0    0    0  0.00000000000E+00  0.00000000000E+00  0.14999999963E+04  0.15000000000E+04  0.10566000000E+00 0. -1.
        994   -1    0    0    0    0 -0.00000000000E+00 -0.00000000000E+00  0.11368683772E-12  0.17120000000E+03  0.17120000000E+03 0.  0.
         13    1    1    2    0    0 -0.74152797720E+01 -0.71432173105E+01  0.18005047901E+02  0.20741379934E+02  0.10566000000E+00 0. -1.
        994    1    1    2    0    0  0.69784005759E+01  0.88359952728E+01  0.31703086936E+01  0.17159913678E+03  0.17120000000E+03 0.  0.
        998    1    1    2    0    0  0.43687919615E+00 -0.16927779623E+01  0.14788246397E+04  0.14788594833E+04  0.10000000000E+02 0. -1.
</event>
<event>
 5    1  0.2293797E-008  0.3861312E+03  0.7957747E-01  0.3424889E+00
         13   -1    0    0    0    0  0.00000000000E+00  0.00000000000E+00  0.14999999963E+04  0.15000000000E+04  0.10566000000E+00 0. -1.
        994   -1    0    0    0    0 -0.00000000000E+00 -0.00000000000E+00  0.11368683772E-12  0.17120000000E+03  0.17120000000E+03 0.  0.
         13    1    1    2    0    0  0.28626064774E+00  0.10963138844E+02  0.59229634152E+02  0.60236476360E+02  0.10566000000E+00 0. -1.
        994    1    1    2    0    0 -0.25978573327E+01 -0.21992692846E+01  0.11075128664E+01  0.17123741482E+03  0.17120000000E+03 0.  0.
        998    1    1    2    0    0  0.23115966850E+01 -0.87638695596E+01  0.14396628493E+04  0.14397261088E+04  0.10000000000E+02 0. -1.
</event>
<event>
 5    1  0.1533416E-008  0.3823495E+03  0.7957747E-01  0.3440992E+00
         13   -1    0    0    0    0  0.00000000000E+00  0.00000000000E+00  0.14999999963E+04  0.15000000000E+04  0.10566000000E+00 0.  1.
        994   -1    0    0    0    0 -0.00000000000E+00 -0.00000000000E+00  0.11368683772E-12  0.17120000000E+03  0.17120000000E+03 0.  0.
         13    1    1    2    0    0  0.86634203827E+01 -0.95233250647E+01  0.27100829866E+02  0.30003578394E+02  0.10566000000E+00 0.  1.
        994    1    1    2    0    0 -0.32479526285E+01  0.73550049390E+01  0.31662818501E+01  0.17141794140E+03  0.17120000000E+03 0.  0.
        998    1    1    2    0    0 -0.54154677542E+01  0.21683201257E+01  0.14697328846E+04  0.14697784802E+04  0.10000000000E+02 0.  1.
</event>
<event>
 5    1  0.1533416E-008  0.3800944E+03  0.7957747E-01  0.3450748E+00
         13   -1    0    0    0    0  0.00000000000E+00  0.00000000000E+00  0.14999999963E+04  0.15000000000E+04  0.10566000000E+00 0. -1.
        994   -1    0    0    0    0 -0.00000000000E+00 -0.00000000000E+00  0.11368683772E-12  0.17120000000E+03  0.17120000000E+03 0.  0.
         13    1    1    2    0    0 -0.10927124318E+02  0.19585509556E+02  0.61648250820E+02  0.65601160230E+02  0.10566000000E+00 0. -1.
        994    1    1    2    0    0 -0.30719732524E+01 -0.11028506251E+02  0.45236217078E+01  0.17164197658E+03  0.17120000000E+03 0.  0.
        998    1    1    2    0    0  0.13999097570E+02 -0.85570033048E+01  0.14338281238E+04  0.14339568632E+04  0.10000000000E+02 0. -1.
</event>
<event>
 5    1  0.1533416E-008  0.3825998E+03  0.7957747E-01  0.3439916E+00
         13   -1    0    0    0    0  0.00000000000E+00  0.00000000000E+00  0.14999999963E+04  0.15000000000E+04  0.10566000000E+00 0.  1.
        994   -1    0    0    0    0 -0.00000000000E+00 -0.00000000000E+00  0.11368683772E-12  0.17120000000E+03  0.17120000000E+03 0.  0.
         13    1    1    2    0    0 -0.14100353756E+02  0.10131488882E+02  0.51975467035E+02  0.54798972441E+02  0.10566000000E+00 0.  1.
        994    1    1    2    0    0  0.98217873052E+01 -0.92054178701E+01  0.34273551186E+01  0.17176260940E+03  0.17120000000E+03 0.  0.
        998    1    1    2    0    0  0.42785664510E+01 -0.92607101144E+00  0.14445971741E+04  0.14446384182E+04  0.10000000000E+02 0.  1.
</event>
<event>
 5    1  0.1533416E-008  0.3860824E+03  0.7957747E-01  0.3425095E+00
         13   -1    0    0    0    0  0.00000000000E+00  0.00000000000E+00  0.14999999963E+04  0.15000000000E+04  0.10566000000E+00 0.  1.
        994   -1    0    0    0    0 -0.00000000000E+00 -0.00000000000E+00  0.11368683772E-12  0.17120000000E+03  0.17120000000E+03 0.  0.
         13    1    1    2    0    0  0.71810105548E+01 -0.11182139782E+02  0.79860153461E+02  0.80958399426E+02  0.10566000000E+00 0.  1.
        994    1    1    2    0    0 -0.58044136656E+01  0.99382389871E+01  0.15279243021E+01  0.17159322354E+03  0.17120000000E+03 0.  0.
        998    1    1    2    0    0 -0.13765968892E+01  0.12439007950E+01  0.14186119185E+04  0.14186483770E+04  0.10000000000E+02 0.  0.
</event>
<event>
 5    1  0.1533416E-008  0.3859868E+03  0.7957747E-01  0.3425498E+00
         13   -1    0    0    0    0  0.00000000000E+00  0.00000000000E+00  0.14999999963E+04  0.15000000000E+04  0.10566000000E+00 0. -1.
        994   -1    0    0    0    0 -0.00000000000E+00 -0.00000000000E+00  0.11368683772E-12  0.17120000000E+03  0.17120000000E+03 0.  0.
         13    1    1    2    0    0 -0.84273203835E+01 -0.76158934729E+01  0.57611416255E+02  0.58720592718E+02  0.10566000000E+00 0. -1.
        994    1    1    2    0    0 -0.33963018775E+01  0.13929028400E+02  0.18151012900E+01  0.17180886849E+03  0.17120000000E+03 0.  0.
        998    1    1    2    0    0  0.11823622261E+02 -0.63131349273E+01  0.14405734787E+04  0.14406705388E+04  0.10000000000E+02 0. -1.
</event>
<event>
 5    1  0.1768527E-008  0.3859200E+03  0.7957747E-01  0.3425780E+00
         13   -1    0    0    0    0  0.00000000000E+00  0.00000000000E+00  0.14999999963E+04  0.15000000000E+04  0.10566000000E+00 0.  1.
        994   -1    0    0    0    0 -0.00000000000E+00 -0.00000000000E+00  0.11368683772E-12  0.17120000000E+03  0.17120000000E+03 0.  0.
         13    1    1    2    0    0  0.56373327454E+01  0.88509529896E+01  0.48648352761E+02  0.49767381684E+02  0.10566000000E+00 0.  1.
        994    1    1    2    0    0 -0.21541856858E+00 -0.33959538874E+01  0.12120024481E+01  0.17123810282E+03  0.17120000000E+03 0.  0.
        998    1    1    2    0    0 -0.54219141768E+01 -0.54549991022E+01  0.14501396411E+04  0.14501945155E+04  0.10000000000E+02 0.  1.
</event>
<event>
 5    1  0.1533416E-008  0.3745776E+03  0.7957747E-01  0.3475114E+00
         13   -1    0    0    0    0  0.00000000000E+00  0.00000000000E+00  0.14999999963E+04  0.15000000000E+04  0.10566000000E+00 0. -1.
        994   -1    0    0    0    0 -0.00000000000E+00 -0.00000000000E+00  0.11368683772E-12  0.17120000000E+03  0.17120000000E+03 0.  0.
         13    1    1    2    0    0  0.40071008597E+02  0.89823708083E+01  0.11447329453E+03  0.12161626141E+03  0.10566000000E+00 0. -1.
        994    1    1    2    0    0 -0.36665657893E+02  0.21696229290E+01  0.11501936051E+02  0.17547310981E+03  0.17120000000E+03 0.  0.
        998    1    1    2    0    0 -0.34053507045E+01 -0.11151993737E+02  0.13740247657E+04  0.13741106288E+04  0.10000000000E+02 0. -1.
</event>
<event>
 5    1  0.1533416E-008  0.3858784E+03  0.7957747E-01  0.3425956E+00
         13   -1    0    0    0    0  0.00000000000E+00  0.00000000000E+00  0.14999999963E+04  0.15000000000E+04  0.10566000000E+00 0. -1.
        994   -1    0    0    0    0 -0.00000000000E+00 -0.00000000000E+00  0.11368683772E-12  0.17120000000E+03  0.17120000000E+03 0.  0.
         13    1    1    2    0    0  0.10532971011E+02 -0.52924906767E+01  0.67365927062E+02  0.68389569591E+02  0.10566000000E+00 0. -1.
        994    1    1    2    0    0  0.87846435559E+01 -0.47087892366E+01  0.15205185316E+01  0.17149663156E+03  0.17120000000E+03 0.  0.
        998    1    1    2    0    0 -0.19317614567E+02  0.10001279913E+02  0.14311135507E+04  0.14313137989E+04  0.10000000000E+02 0. -1.
</event>
<event>
 5    1  0.1533416E-008  0.3802921E+03  0.7957747E-01  0.3449888E+00
         13   -1    0    0    0    0  0.00000000000E+00  0.00000000000E+00  0.14999999963E+04  0.15000000000E+04  0.10566000000E+00 0. -1.
        994   -1    0    0    0    0 -0.00000000000E+00 -0.00000000000E+00  0.11368683772E-12  0.17120000000E+03  0.17120000000E+03 0.  0.
         13    1    1    2    0    0 -0.64322850077E+01  0.14830777003E+02  0.31616146725E+02  0.35509409101E+02  0.10566000000E+00 0. -1.
        994    1    1    2    0    0  0.86073064716E+01 -0.38872200895E+01  0.42837308649E+01  0.17151380864E+03  0.17120000000E+03 0.  0.
        998    1    1    2    0    0 -0.21750214639E+01 -0.10943556913E+02  0.14641001187E+04  0.14641767823E+04  0.10000000000E+02 0. -1.
</event>
<event>
 5    1  0.1533416E-008  0.3784418E+03  0.7957747E-01  0.3457971E+00
         13   -1    0    0    0    0  0.00000000000E+00  0.00000000000E+00  0.14999999963E+04  0.15000000000E+04  0.10566000000E+00 0.  1.
        994   -1    0    0    0    0 -0.00000000000E+00 -0.00000000000E+00  0.11368683772E-12  0.17120000000E+03  0.17120000000E+03 0.  0.
         13    1    1    2    0    0  0.17766374514E+02 -0.73782170196E+01  0.35277369013E+02  0.40181912328E+02  0.10566000000E+00 0.  1.
        994    1    1    2    0    0 -0.88013553169E+01  0.21060582490E+02  0.66744466058E+01  0.17284386083E+03  0.17120000000E+03 0.  0.
        998    1    1    2    0    0 -0.89650191969E+01 -0.13682365471E+02  0.14580481807E+04  0.14581742268E+04  0.10000000000E+02 0.  1.
</event>
<event>
 5    1  0.1533416E-008  0.3703131E+03  0.7957747E-01  0.3494453E+00
         13   -1    0    0    0    0  0.00000000000E+00  0.00000000000E+00  0.14999999963E+04  0.15000000000E+04  0.10566000000E+00 0.  1.
        994   -1    0    0    0    0 -0.00000000000E+00 -0.00000000000E+00  0.11368683772E-12  0.17120000000E+03  0.17120000000E+03 0.  0.
         13    1    1    2    0    0  0.11482313175E+02 -0.29091640296E+01  0.34260472616E+01  0.12331087343E+02  0.10566000000E+00 0.  1.
        994    1    1    2    0    0 -0.14050261361E+02  0.50468553771E+01  0.98756528208E+01  0.17213323070E+03  0.17120000000E+03 0.  0.
        998    1    1    2    0    0  0.25679481860E+01 -0.21376913475E+01  0.14866982962E+04  0.14867356820E+04  0.10000000000E+02 0.  1.
</event>
<event>
 5    1  0.1533416E-008  0.3844672E+03  0.7957747E-01  0.3431935E+00
         13   -1    0    0    0    0  0.00000000000E+00  0.00000000000E+00  0.14999999963E+04  0.15000000000E+04  0.10566000000E+00 0.  1.
        994   -1    0    0    0    0 -0.00000000000E+00 -0.00000000000E+00  0.11368683772E-12  0.17120000000E+03  0.17120000000E+03 0.  0.
         13    1    1    2    0    0 -0.10886692983E+02 -0.39625865332E+01  0.34867793956E+02  0.36742297091E+02  0.10566000000E+00 0.  1.
        994    1    1    2    0    0  0.95230588765E+01 -0.12511412645E+00  0.21937589923E+01  0.17147873595E+03  0.17120000000E+03 0.  0.
        998    1    1    2    0    0  0.13636341069E+01  0.40877006597E+01  0.14629384433E+04  0.14629789670E+04  0.10000000000E+02 0.  1.
</event>
<event>
 5    1  0.1533416E-008  0.3795144E+03  0.7957747E-01  0.3453276E+00
         13   -1    0    0    0    0  0.00000000000E+00  0.00000000000E+00  0.14999999963E+04  0.15000000000E+04  0.10566000000E+00 0.  1.
        994   -1    0    0    0    0 -0.00000000000E+00 -0.00000000000E+00  0.11368683772E-12  0.17120000000E+03  0.17120000000E+03 0.  0.
         13    1    1    2    0    0  0.34379853931E+02 -0.25838951673E+02  0.19476871604E+03  0.19946049657E+03  0.10566000000E+00 0.  1.
        994    1    1    2    0    0 -0.24247794473E+02  0.26713883240E+02  0.87489083832E+01  0.17517868162E+03  0.17120000000E+03 0.  0.
        998    1    1    2    0    0 -0.10132059458E+02 -0.87493156686E+00  0.12964823719E+04  0.12965608218E+04  0.10000000000E+02 0.  1.
</event>
<event>
 5    1  0.1533416E-008  0.3730812E+03  0.7957747E-01  0.3481849E+00
         13   -1    0    0    0    0  0.00000000000E+00  0.00000000000E+00  0.14999999963E+04  0.15000000000E+04  0.10566000000E+00 0. -1.
        994   -1    0    0    0    0 -0.00000000000E+00 -0.00000000000E+00  0.11368683772E-12  0.17120000000E+03  0.17120000000E+03 0.  0.
         13    1    1    2    0    0 -0.34503944288E+02  0.34533341404E+02  0.14212839750E+03  0.15027829643E+03  0.10566000000E+00 0. -1.
        994    1    1    2    0    0  0.45215999878E+02 -0.18054150655E+02  0.15821277274E+02  0.17869021186E+03  0.17120000000E+03 0.  0.
        998    1    1    2    0    0 -0.10712055590E+02 -0.16479190749E+02  0.13420503215E+04  0.13422314917E+04  0.10000000000E+02 0. -1.
</event>
<event>
 5    1  0.1533416E-008  0.3843730E+03  0.7957747E-01  0.3432336E+00
         13   -1    0    0    0    0  0.00000000000E+00  0.00000000000E+00  0.14999999963E+04  0.15000000000E+04  0.10566000000E+00 0. -1.
        994   -1    0    0    0    0 -0.00000000000E+00 -0.00000000000E+00  0.11368683772E-12  0.17120000000E+03  0.17120000000E+03 0.  0.
         13    1    1    2    0    0 -0.33864918829E+02 -0.45384265624E+02  0.84494780387E+02  0.10171501054E+03  0.10566000000E+00 0. -1.
        994    1    1    2    0    0 -0.17134192108E+02  0.32854594374E+02  0.23823308852E+02  0.17677668103E+03  0.17120000000E+03 0.  0.
        998    1    1    2    0    0  0.50999110937E+02  0.12529671251E+02  0.13916819070E+04  0.13927083084E+04  0.10000000000E+02 0. -1.
</event>
<event>
 5    1  0.1533416E-008  0.3790556E+03  0.7957747E-01  0.3455281E+00
         13   -1    0    0    0    0  0.00000000000E+00  0.00000000000E+00  0.14999999963E+04  0.15000000000E+04  0.10566000000E+00 0. -1.
        994   -1    0    0    0    0 -0.00000000000E+00 -0.00000000000E+00  0.11368683772E-12  0.17120000000E+03  0.17120000000E+03 0.  0.
         13    1    1    2    0    0  0.18359697047E+02 -0.13983768669E+02  0.99655040319E+01  0.25138550008E+02  0.10566000000E+00 0. -1.
        994    1    1    2    0    0 -0.14447705469E+02  0.12165954673E+02  0.17098693419E+02  0.17308538922E+03  0.17120000000E+03 0.  0.
        998    1    1    2    0    0 -0.39119915783E+01  0.18178139959E+01  0.14729357988E+04  0.14729760608E+04  0.10000000000E+02 0. -1.
</event>
<event>
 5    1  0.1533416E-008  0.3800272E+03  0.7957747E-01  0.3451040E+00
         13   -1    0    0    0    0  0.00000000000E+00  0.00000000000E+00  0.14999999963E+04  0.15000000000E+04  0.10566000000E+00 0. -1.
        994   -1    0    0    0    0 -0.00000000000E+00 -0.00000000000E+00  0.11368683772E-12  0.17120000000E+03  0.17120000000E+03 0.  0.
         13    1    1    2    0    0 -0.24906317374E+02  0.31139666361E+02  0.17775065332E+03  0.18216835451E+03  0.10566000000E+00 0. -1.
        994    1    1    2    0    0  0.15257067274E+02 -0.31535714604E+02  0.82326418825E+01  0.17494140673E+03  0.17120000000E+03 0.  0.
        998    1    1    2    0    0  0.96492500993E+01  0.39604824286E+00  0.13140167011E+04  0.13140902388E+04  0.10000000000E+02 0. -1.
</event>
<event>
 5    1  0.1533416E-008  0.3819990E+03  0.7957747E-01  0.3442500E+00
         13   -1    0    0    0    0  0.00000000000E+00  0.00000000000E+00  0.14999999963E+04  0.15000000000E+04  0.10566000000E+00 0. -1.
        994   -1    0    0    0    0 -0.00000000000E+00 -0.00000000000E+00  0.11368683772E-12  0.17120000000E+03  0.17120000000E+03 0.  0.
         13    1    1    2    0    0 -0.84648549046E+02  0.54066583124E+01  0.17844253816E+03  0.19757621162E+03  0.10566000000E+00 0. -1.
        994    1    1    2    0    0  0.83335184613E+02  0.10602335906E+01  0.43247828455E+02  0.19525801329E+03  0.17120000000E+03 0.  0.
        998    1    1    2    0    0  0.13133644332E+01 -0.64668919030E+01  0.12783096297E+04  0.12783657751E+04  0.10000000000E+02 0. -1.
</event>
<event>
 5    1  0.1533416E-008  0.3831012E+03  0.7957747E-01  0.3437765E+00
         13   -1    0    0    0    0  0.00000000000E+00  0.00000000000E+00  0.14999999963E+04  0.15000000000E+04  0.10566000000E+00 0. -1.
        994   -1    0    0    0    0 -0.00000000000E+00 -0.00000000000E+00  0.11368683772E-12  0.17120000000E+03  0.17120000000E+03 0.  0.
         13    1    1    2    0    0  0.35413761266E+02  0.42243559729E+02  0.69895145879E+02  0.89016826539E+02  0.10566000000E+00 0. -1.
        994    1    1    2    0    0 -0.46495733883E+02 -0.60755660519E+02  0.39824012158E+02  0.19169897104E+03  0.17120000000E+03 0.  0.
        998    1    1    2    0    0  0.11081972617E+02  0.18512100790E+02  0.13902808382E+04  0.13904842024E+04  0.10000000000E+02 0. -1.
</event>
<event>
 5    1  0.1533416E-008  0.3836339E+03  0.7957747E-01  0.3435487E+00
         13   -1    0    0    0    0  0.00000000000E+00  0.00000000000E+00  0.14999999963E+04  0.15000000000E+04  0.10566000000E+00 0.  1.
        994   -1    0    0    0    0 -0.00000000000E+00 -0.00000000000E+00  0.11368683772E-12  0.17120000000E+03  0.17120000000E+03 0.  0.
         13    1    1    2    0    0 -0.40980492427E+02 -0.22479140874E+02  0.23042644354E+03  0.23511926671E+03  0.10566000000E+00 0.  1.
        994    1    1    2    0    0  0.87457389068E+02  0.58956071672E+02  0.39967853590E+02  0.20501581063E+03  0.17120000000E+03 0.  0.
        998    1    1    2    0    0 -0.46476896642E+02 -0.36476930798E+02  0.12296056991E+04  0.12310649227E+04  0.10000000000E+02 0.  1.
</event>
<event>
 5    1  0.1533416E-008  0.3816316E+03  0.7957747E-01  0.3444085E+00
         13   -1    0    0    0    0  0.00000000000E+00  0.00000000000E+00  0.14999999963E+04  0.15000000000E+04  0.10566000000E+00 0.  1.
        994   -1    0    0    0    0 -0.00000000000E+00 -0.00000000000E+00  0.11368683772E-12  0.17120000000E+03  0.17120000000E+03 0.  0.
         13    1    1    2    0    0  0.52198463933E+01 -0.22138081353E+02  0.89146143750E+02  0.92002106236E+02  0.10566000000E+00 0.  1.
        994    1    1    2    0    0 -0.35093244910E+02 -0.19678179046E+02  0.87129323814E+01  0.17607987324E+03  0.17120000000E+03 0.  0.
        998    1    1    2    0    0  0.29873398516E+02  0.41816260399E+02  0.14021409201E+04  0.14031180205E+04  0.10000000000E+02 0.  1.
</event>
<event>
 5    1  0.1533416E-008  0.3764003E+03  0.7957747E-01  0.3466984E+00
         13   -1    0    0    0    0  0.00000000000E+00  0.00000000000E+00  0.14999999963E+04  0.15000000000E+04  0.10566000000E+00 0. -1.
        994   -1    0    0    0    0 -0.00000000000E+00 -0.00000000000E+00  0.11368683772E-12  0.17120000000E+03  0.17120000000E+03 0.  0.
         13    1    1    2    0    0  0.67163317633E+01 -0.52681925307E+02  0.20463567669E+03  0.21141491363E+03  0.10566000000E+00 0. -1.
        994    1    1    2    0    0 -0.17357723533E+01  0.52720263185E+02  0.15433651407E+02  0.17980566357E+03  0.17120000000E+03 0.  0.
        998    1    1    2    0    0 -0.49805594100E+01 -0.38337877712E-01  0.12799306682E+04  0.12799794228E+04  0.10000000000E+02 0.  0.
</event>
<event>
 5    1  0.3658466E-008  0.3860627E+03  0.7957747E-01  0.3425178E+00
         13   -1    0    0    0    0  0.00000000000E+00  0.00000000000E+00  0.14999999963E+04  0.15000000000E+04  0.10566000000E+00 0. -1.
        994   -1    0    0    0    0 -0.00000000000E+00 -0.00000000000E+00  0.11368683772E-12  0.17120000000E+03  0.17120000000E+03 0.  0.
         13    1    1    2    0    0 -0.50233653997E+01 -0.90413874808E+01  0.51365698193E+02  0.52396822446E+02  0.10566000000E+00 0. -1.
        994    1    1    2    0    0  0.20721244796E+01 -0.70507176643E+00  0.11191307709E+01  0.17121764886E+03  0.17120000000E+03 0.  0.
        998    1    1    2    0    0  0.29512409201E+01  0.97464592472E+01  0.14475151673E+04  0.14475855287E+04  0.10000000000E+02 0. -1.
</event>
<event>
 5    1  0.1533416E-008  0.3777356E+03  0.7957747E-01  0.3461078E+00
         13   -1    0    0    0    0  0.00000000000E+00  0.00000000000E+00  0.14999999963E+04  0.15000000000E+04  0.10566000000E+00 0.  1.
        994   -1    0    0    0    0 -0.00000000000E+00 -0.00000000000E+00  0.11368683772E-12  0.17120000000E+03  0.17120000000E+03 0.  0.
         13    1    1    2    0    0 -0.13389507011E+03  0.17044590322E+03  0.94090274447E+03  0.96554527674E+03  0.10566000000E+00 0.  1.
        994    1    1    2    0    0  0.12539951027E+03 -0.18702140730E+03  0.20116957816E+03  0.34710327446E+03  0.17120000000E+03 0.  0.
        998    1    1    2    0    0  0.84955598435E+01  0.16575504075E+02  0.35792767365E+03  0.35855144880E+03  0.10000000000E+02 0.  1.
</event>
<event>
 5    1  0.1533416E-008  0.3836490E+03  0.7957747E-01  0.3435422E+00
         13   -1    0    0    0    0  0.00000000000E+00  0.00000000000E+00  0.14999999963E+04  0.15000000000E+04  0.10566000000E+00 0.  1.
        994   -1    0    0    0    0 -0.00000000000E+00 -0.00000000000E+00  0.11368683772E-12  0.17120000000E+03  0.17120000000E+03 0.  0.
         13    1    1    2    0    0  0.71344240080E+01 -0.10502164771E+02  0.34253474161E+02  0.36530906462E+02  0.10566000000E+00 0.  1.
        994    1    1    2    0    0 -0.62328594089E+01  0.69214293019E+01  0.25889913512E+01  0.17147273135E+03  0.17120000000E+03 0.  0.
        998    1    1    2    0    0 -0.90156459904E+00  0.35807354689E+01  0.14631575308E+04  0.14631963622E+04  0.10000000000E+02 0.  1.
</event>
<event>
 5    1  0.1533416E-008  0.3838407E+03  0.7957747E-01  0.3434604E+00
         13   -1    0    0    0    0  0.00000000000E+00  0.00000000000E+00  0.14999999963E+04  0.15000000000E+04  0.10566000000E+00 0.  1.
        994   -1    0    0    0    0 -0.00000000000E+00 -0.00000000000E+00  0.11368683772E-12  0.17120000000E+03  0.17120000000E+03 0.  0.
         13    1    1    2    0    0 -0.21561068225E+02  0.41582497847E+01  0.11792300937E+03  0.11995006464E+03  0.10566000000E+00 0.  1.
        994    1    1    2    0    0  0.18765802752E+01 -0.56270299713E+01  0.23229549393E+01  0.17131847869E+03  0.17120000000E+03 0.  0.
        998    1    1    2    0    0  0.19684487949E+02  0.14687801867E+01  0.13797540320E+04  0.13799314567E+04  0.10000000000E+02 0.  1.
</event>
<event>
 5    1  0.1533416E-008  0.3764003E+03  0.7957747E-01  0.3466984E+00
         13   -1    0    0    0    0  0.00000000000E+00  0.00000000000E+00  0.14999999963E+04  0.15000000000E+04  0.10566000000E+00 0. -1.
        994   -1    0    0    0    0 -0.00000000000E+00 -0.00000000000E+00  0.11368683772E-12  0.17120000000E+03  0.17120000000E+03 0.  0.
         13    1    1    2    0    0  0.20211104216E+02 -0.42879824956E+02  0.18029992648E+03  0.18642758051E+03  0.10566000000E+00 0. -1.
        994    1    1    2    0    0 -0.22607068628E+02  0.26214141339E+02  0.10026107996E+02  0.17495206086E+03  0.17120000000E+03 0.  0.
        998    1    1    2    0    0  0.23959644115E+01  0.16665683617E+02  0.13096739618E+04  0.13098203586E+04  0.10000000000E+02 0. -1.
</event>
<event>
 5    1  0.1533416E-008  0.3717990E+03  0.7957747E-01  0.3487664E+00
         13   -1    0    0    0    0  0.00000000000E+00  0.00000000000E+00  0.14999999963E+04  0.15000000000E+04  0.10566000000E+00 0. -1.
        994   -1    0    0    0    0 -0.00000000000E+00 -0.00000000000E+00  0.11368683772E-12  0.17120000000E+03  0.17120000000E+03 0.  0.
         13    1    1    2    0    0  0.49721268476E+01 -0.12262504700E+02  0.69765532283E+01  0.14959095089E+02  0.10566000000E+00 0. -1.
        994    1    1    2    0    0 -0.26734772418E+02 -0.19350084792E+02  0.12083736102E+02  0.17477022205E+03  0.17120000000E+03 0.  0.
        998    1    1    2    0    0  0.21762645570E+02  0.31612589492E+02  0.14809397069E+04  0.14814706829E+04  0.10000000000E+02 0. -1.
</event>
<event>
 5    1  0.1533416E-008  0.3823378E+03  0.7957747E-01  0.3441042E+00
         13   -1    0    0    0    0  0.00000000000E+00  0.00000000000E+00  0.14999999963E+04  0.15000000000E+04  0.10566000000E+00 0. -1.
        994   -1    0    0    0    0 -0.00000000000E+00 -0.00000000000E+00  0.11368683772E-12  0.17120000000E+03  0.17120000000E+03 0.  0.
         13    1    1    2    0    0  0.19691699585E+02 -0.50863636125E+01  0.75389203905E+02  0.78084424547E+02  0.10566000000E+00 0. -1.
        994    1    1    2    0    0  0.40319447615E+01 -0.69251442998E-01  0.30116323615E+01  0.17127396563E+03  0.17120000000E+03 0.  0.
        998    1    1    2    0    0 -0.23723644346E+02  0.51556150555E+01  0.14215991600E+04  0.14218416098E+04  0.10000000000E+02 0. -1.
</event>
<event>
 5    1  0.1533416E-008  0.3780774E+03  0.7957747E-01  0.3459573E+00
         13   -1    0    0    0    0  0.00000000000E+00  0.00000000000E+00  0.14999999963E+04  0.15000000000E+04  0.10566000000E+00 0. -1.
        994   -1    0    0    0    0 -0.00000000000E+00 -0.00000000000E+00  0.11368683772E-12  0.17120000000E+03  0.17120000000E+03 0.  0.
         13    1    1    2    0    0  0.20678344995E+02  0.40784848341E+02  0.26229698590E+03  0.26625310849E+03  0.10566000000E+00 0. -1.
        994    1    1    2    0    0  0.16417446021E+01  0.47472874726E+01  0.51916935135E+01  0.17135234386E+03  0.17120000000E+03 0.  0.
        998    1    1    2    0    0 -0.22320089597E+02 -0.45532135814E+02  0.12325113169E+04  0.12335945477E+04  0.10000000000E+02 0. -1.
</event>
<event>
 5    1  0.1533416E-008  0.2262554E+03  0.7957747E-01  0.4621168E+00
         13   -1    0    0    0    0  0.00000000000E+00  0.00000000000E+00  0.14999999963E+04  0.15000000000E+04  0.10566000000E+00 0. -1.
        994   -1    0    0    0    0 -0.00000000000E+00 -0.00000000000E+00  0.11368683772E-12  0.17120000000E+03  0.17120000000E+03 0.  0.
         13    1    1    2    0    0  0.96215163061E+02  0.99032669527E+02  0.80989263040E+02  0.16007529206E+03  0.10566000000E+00 0. -1.
        994    1    1    2    0    0 -0.87724047901E+02 -0.65536627546E+02  0.17966035235E+03  0.27125235545E+03  0.17120000000E+03 0.  0.
        998    1    1    2    0    0 -0.84911151600E+01 -0.33496041981E+02  0.12393503809E+04  0.12398723525E+04  0.10000000000E+02 0. -1.
</event>
<event>
 5    1  0.1533416E-008  0.3754559E+03  0.7957747E-01  0.3471186E+00
         13   -1    0    0    0    0  0.00000000000E+00  0.00000000000E+00  0.14999999963E+04  0.15000000000E+04  0.10566000000E+00 0. -1.
        994   -1    0    0    0    0 -0.00000000000E+00 -0.00000000000E+00  0.11368683772E-12  0.17120000000E+03  0.17120000000E+03 0.  0.
         13    1    1    2    0    0 -0.50492792673E+01 -0.24698632676E+02  0.59125424205E+02  0.64275536782E+02  0.10566000000E+00 0. -1.
        994    1    1    2    0    0 -0.43388767887E+02 -0.43664362685E+02  0.19415577913E+02  0.18296329253E+03  0.17120000000E+03 0.  0.
        998    1    1    2    0    0  0.48438047154E+02  0.68362995362E+02  0.14214589942E+04  0.14239611707E+04  0.10000000000E+02 0. -1.
</event>
<event>
 5    1  0.1533416E-008  0.3858539E+03  0.7957747E-01  0.3426059E+00
         13   -1    0    0    0    0  0.00000000000E+00  0.00000000000E+00  0.14999999963E+04  0.15000000000E+04  0.10566000000E+00 0.  1.
        994   -1    0    0    0    0 -0.00000000000E+00 -0.00000000000E+00  0.11368683772E-12  0.17120000000E+03  0.17120000000E+03 0.  0.
         13    1    1    2    0    0 -0.99764858852E+01 -0.83963045525E+00  0.41500486544E+02  0.42691179386E+02  0.10566000000E+00 0.  1.
        994    1    1    2    0    0  0.83172916157E+01  0.69940481296E+00  0.14353096488E+01  0.17140935395E+03  0.17120000000E+03 0.  0.
        998    1    1    2    0    0  0.16591942695E+01  0.14022564229E+00  0.14570642001E+04  0.14570994667E+04  0.10000000000E+02 0.  1.
</event>
<event>
 5    1  0.1533416E-008  0.3818301E+03  0.7957747E-01  0.3443228E+00
         13   -1    0    0    0    0  0.00000000000E+00  0.00000000000E+00  0.14999999963E+04  0.15000000000E+04  0.10566000000E+00 0. -1.
        994   -1    0    0    0    0 -0.00000000000E+00 -0.00000000000E+00  0.11368683772E-12  0.17120000000E+03  0.17120000000E+03 0.  0.
         13    1    1    2    0    0  0.22549473479E+02 -0.30166123000E+02  0.20434022394E+03  0.20778212631E+03  0.10566000000E+00 0. -1.
        994    1    1    2    0    0 -0.19061127701E+02  0.23892052353E+02  0.63224115180E+01  0.17402175049E+03  0.17120000000E+03 0.  0.
        998    1    1    2    0    0 -0.34883457774E+01  0.62740706466E+01  0.12893373608E+04  0.12893961232E+04  0.10000000000E+02 0. -1.
</event>
<event>
 5    1  0.1533416E-008  0.3848880E+03  0.7957747E-01  0.3430147E+00
         13   -1    0    0    0    0  0.00000000000E+00  0.00000000000E+00  0.14999999963E+04  0.15000000000E+04  0.10566000000E+00 0.  1.
        994   -1    0    0    0    0 -0.00000000000E+00 -0.00000000000E+00  0.11368683772E-12  0.17120000000E+03  0.17120000000E+03 0.  0.
         13    1    1    2    0    0 -0.88732920399E+01  0.90416065831E+01  0.47499099927E+02  0.49159552675E+02  0.10566000000E+00 0.  1.
        994    1    1    2    0    0  0.29063267413E+01 -0.89349977892E+01  0.19762200186E+01  0.17146902451E+03  0.17120000000E+03 0.  0.
        998    1    1    2    0    0  0.59669652986E+01 -0.10660879395E+00  0.14505246763E+04  0.14505714228E+04  0.10000000000E+02 0.  1.
</event>
<event>
 5    1  0.1533416E-008  0.3822949E+03  0.7957747E-01  0.3441226E+00
         13   -1    0    0    0    0  0.00000000000E+00  0.00000000000E+00  0.14999999963E+04  0.15000000000E+04  0.10566000000E+00 0.  1.
        994   -1    0    0    0    0 -0.00000000000E+00 -0.00000000000E+00  0.11368683772E-12  0.17120000000E+03  0.17120000000E+03 0.  0.
         13    1    1    2    0    0 -0.11232027850E+02  0.33697312903E+02  0.19212533181E+03  0.19538122129E+03  0.10566000000E+00 0.  1.
        994    1    1    2    0    0  0.13523172029E+02 -0.29120570502E+02  0.64068975237E+01  0.17430253052E+03  0.17120000000E+03 0.  0.
        998    1    1    2    0    0 -0.22911441788E+01 -0.45767424007E+01  0.13014677669E+04  0.13015162482E+04  0.10000000000E+02 0.  0.
</event>
<event>
 5    1  0.1533416E-008  0.3854837E+03  0.7957747E-01  0.3427623E+00
         13   -1    0    0    0    0  0.00000000000E+00  0.00000000000E+00  0.14999999963E+04  0.15000000000E+04  0.10566000000E+00 0.  1.
        994   -1    0    0    0    0 -0.00000000000E+00 -0.00000000000E+00  0.11368683772E-12  0.17120000000E+03  0.17120000000E+03 0.  0.
         13    1    1    2    0    0  0.10788266888E+02  0.60351147811E+01  0.56081054209E+02  0.57427389964E+02  0.10566000000E+00 0.  1.
        994    1    1    2    0    0 -0.66826826003E+01  0.16814015160E-01  0.15368058985E+01  0.17133727062E+03  0.17120000000E+03 0.  0.
        998    1    1    2    0    0 -0.41055842872E+01 -0.60519287963E+01  0.14423821362E+04  0.14424353394E+04  0.10000000000E+02 0.  1.
</event>
<event>
 5    1  0.1533416E-008  0.3840603E+03  0.7957747E-01  0.3433667E+00
         13   -1    0    0    0    0  0.00000000000E+00  0.00000000000E+00  0.14999999963E+04  0.15000000000E+04  0.10566000000E+00 0. -1.
        994   -1    0    0    0    0 -0.00000000000E+00 -0.00000000000E+00  0.11368683772E-12  0.17120000000E+03  0.17120000000E+03 0.  0.
         13    1    1    2    0    0 -0.98862172307E+01  0.21390081743E+02  0.11480449612E+03  0.11719793676E+03  0.10566000000E+00 0. -1.
        994    1    1    2    0    0  0.54660456373E+01 -0.34583584855E+02  0.61517843343E+01  0.17485189861E+03  0.17120000000E+03 0.  0.
        998    1    1    2    0    0  0.44201715934E+01  0.13193503112E+02  0.13790437158E+04  0.13791501646E+04  0.10000000000E+02 0. -1.
</event>
<event>
 5    1  0.1533416E-008  0.3696034E+03  0.7957747E-01  0.3497716E+00
         13   -1    0    0    0    0  0.00000000000E+00  0.00000000000E+00  0.14999999963E+04  0.15000000000E+04  0.10566000000E+00 0. -1.
        994   -1    0    0    0    0 -0.00000000000E+00 -0.00000000000E+00  0.11368683772E-12  0.17120000000E+03  0.17120000000E+03 0.  0.
         13    1    1    2    0    0  0.12660654612E+02  0.19610097231E+02  0.24365655638E+02  0.33742323976E+02  0.10566000000E+00 0. -1.
        994    1    1    2    0    0 -0.12994052001E+02 -0.19600073789E+02  0.11393591855E+02  0.17318274226E+03  0.17120000000E+03 0.  0.
        998    1    1    2    0    0  0.33339738911E+00 -0.10023442244E-01  0.14642407488E+04  0.14642749338E+04  0.10000000000E+02 0.  0.
</event>
<event>
 5    1  0.1533416E-008  0.3784170E+03  0.7957747E-01  0.3458080E+00
         13   -1    0    0    0    0  0.00000000000E+00  0.00000000000E+00  0.14999999963E+04  0.15000000000E+04  0.10566000000E+00 0.  1.
        994   -1    0    0    0    0 -0.00000000000E+00 -0.00000000000E+00  0.11368683772E-12  0.17120000000E+03  0.17120000000E+03 0.  0.
         13    1    1    2    0    0  0.36793647121E+02 -0.24343897464E+02  0.17736730780E+03  0.18277190936E+03  0.10566000000E+00 0.  1.
        994    1    1    2    0    0 -0.18247665949E+02  0.48760311544E+02  0.14097742882E+02  0.17949577056E+03  0.17120000000E+03 0.  0.
        998    1    1    2    0    0 -0.18545981172E+02 -0.24416414080E+02  0.13085349456E+04  0.13089323201E+04  0.10000000000E+02 0.  1.
</event>
<event>
 5    1  0.1533416E-008  0.3846104E+03  0.7957747E-01  0.3431326E+00
         13   -1    0    0    0    0  0.00000000000E+00  0.00000000000E+00  0.14999999963E+04  0.15000000000E+04  0.10566000000E+00 0.  1.
        994   -1    0    0    0    0 -0.00000000000E+00 -0.00000000000E+00  0.11368683772E-12  0.17120000000E+03  0.17120000000E+03 0.  0.
         13    1    1    2    0    0  0.14895806803E+02  0.99711823629E+01  0.93558990080E+02  0.95260722897E+02  0.10566000000E+00 0.  1.
        994    1    1    2    0    0 -0.20272228946E+01 -0.23124270096E+01  0.18548154759E+01  0.17123766318E+03  0.17120000000E+03 0.  0.
        998    1    1    2    0    0 -0.12868583908E+02 -0.76587553533E+01  0.14045861907E+04  0.14047016139E+04  0.10000000000E+02 0.  1.
</event>
<event>
 5    1  0.1533416E-008  0.3749320E+03  0.7957747E-01  0.3473527E+00
         13   -1    0    0    0    0  0.00000000000E+00  0.00000000000E+00  0.14999999963E+04  0.15000000000E+04  0.10566000000E+00 0. -1.
        994   -1    0    0    0    0 -0.00000000000E+00 -0.00000000000E+00  0.11368683772E-12  0.17120000000E+03  0.17120000000E+03 0.  0.
         13    1    1    2    0    0  0.28875049007E+02  0.29562972054E+01  0.24379018926E+02  0.37905881814E+02  0.10566000000E+00 0. -1.
        994    1    1    2    0    0 -0.38746772942E+02 -0.67179814660E+01  0.19092467214E+02  0.17669297098E+03  0.17120000000E+03 0.  0.
        998    1    1    2    0    0  0.98717239356E+01  0.37616842606E+01  0.14565285101E+04  0.14566011472E+04  0.10000000000E+02 0. -1.
</event>
<event>
 5    1  0.1533416E-008  0.3819259E+03  0.7957747E-01  0.3442815E+00
         13   -1    0    0    0    0  0.00000000000E+00  0.00000000000E+00  0.14999999963E+04  0.15000000000E+04  0.10566000000E+00 0.  1.
        994   -1    0    0    0    0 -0.00000000000E+00 -0.00000000000E+00  0.11368683772E-12  0.17120000000E+03  0.17120000000E+03 0.  0.
         13    1    1    2    0    0  0.14832931112E+02 -0.72512468698E+01  0.43826440288E+02  0.46833369075E+02  0.10566000000E+00 0.  1.
        994    1    1    2    0    0 -0.14930482962E+01 -0.29929395851E+01  0.32012729039E+01  0.17126259086E+03  0.17120000000E+03 0.  0.
        998    1    1    2    0    0 -0.13339882816E+02  0.10244186455E+02  0.14529722831E+04  0.14531040401E+04  0.10000000000E+02 0.  1.
</event>
<event>
 5    1  0.1533416E-008  0.3801794E+03  0.7957747E-01  0.3450378E+00
         13   -1    0    0    0    0  0.00000000000E+00  0.00000000000E+00  0.14999999963E+04  0.15000000000E+04  0.10566000000E+00 0. -1.
        994   -1    0    0    0    0 -0.00000000000E+00 -0.00000000000E+00  0.11368683772E-12  0.17120000000E+03  0.17120000000E+03 0.  0.
         13    1    1    2    0    0  0.26220265878E+02  0.58144815696E+02  0.36469358337E+03  0.37022931117E+03  0.10566000000E+00 0. -1.
        994    1    1    2    0    0 -0.16156933427E+02 -0.67604881219E+02  0.20356670038E+02  0.18589056048E+03  0.17120000000E+03 0.  0.
        998    1    1    2    0    0 -0.10063332451E+02  0.94600655232E+01  0.11149497429E+04  0.11150801283E+04  0.10000000000E+02 0. -1.
</event>
<event>
 5    1  0.1533416E-008  0.3843413E+03  0.7957747E-01  0.3432471E+00
         13   -1    0    0    0    0  0.00000000000E+00  0.00000000000E+00  0.14999999963E+04  0.15000000000E+04  0.10566000000E+00 0. -1.
        994   -1    0    0    0    0 -0.00000000000E+00 -0.00000000000E+00  0.11368683772E-12  0.17120000000E+03  0.17120000000E+03 0.  0.
         13    1    1    2    0    0  0.16795376662E+02  0.74651921889E+00  0.68171022250E+02  0.70213541477E+02  0.10566000000E+00 0. -1.
        994    1    1    2    0    0 -0.20391342618E+02  0.75380518021E+01  0.35167231937E+01  0.17261064979E+03  0.17120000000E+03 0.  0.
        998    1    1    2    0    0  0.35959659554E+01 -0.82845710210E+01  0.14283122508E+04  0.14283758087E+04  0.10000000000E+02 0. -1.
</event>
<event>
 5    1  0.1533416E-008  0.3802227E+03  0.7957747E-01  0.3450189E+00
         13   -1    0    0    0    0  0.00000000000E+00  0.00000000000E+00  0.14999999963E+04  0.15000000000E+04  0.10566000000E+00 0.  1.
        994   -1    0    0    0    0 -0.00000000000E+00 -0.00000000000E+00  0.11368683772E-12  0.17120000000E+03  0.17120000000E+03 0.  0.
         13    1    1    2    0    0  0.27823113830E+02 -0.22682443803E+02  0.16726573615E+03  0.17107441823E+03  0.10566000000E+00 0.  1.
        994    1    1    2    0    0 -0.39403216185E+01  0.16712937102E+02  0.50063135324E+01  0.17213178549E+03  0.17120000000E+03 0.  0.
        998    1    1    2    0    0 -0.23882792211E+02  0.59695067012E+01  0.13277279466E+04  0.13279937963E+04  0.10000000000E+02 0.  1.
</event>
<event>
 5    1  0.1533416E-008  0.3783365E+03  0.7957747E-01  0.3458434E+00
         13   -1    0    0    0    0  0.00000000000E+00  0.00000000000E+00  0.14999999963E+04  0.15000000000E+04  0.10566000000E+00 0.  1.
        994   -1    0    0    0    0 -0.00000000000E+00 -0.00000000000E+00  0.11368683772E-12  0.17120000000E+03  0.17120000000E+03 0.  0.
         13    1    1    2    0    0 -0.60809170922E+02  0.15752416792E+03  0.96797343753E+03  0.98259055851E+03  0.10566000000E+00 0.  1.
        994    1    1    2    0    0  0.67330346469E+02 -0.15005180156E+03  0.10205263632E+03  0.25840491344E+03  0.17120000000E+03 0.  0.
        998    1    1    2    0    0 -0.65211755471E+01 -0.74723663617E+01  0.42997392243E+03  0.43020452805E+03  0.10000000000E+02 0.  1.
</event>
<event>
 5    1  0.1533416E-008  0.3747485E+03  0.7957747E-01  0.3474348E+00
         13   -1    0    0    0    0  0.00000000000E+00  0.00000000000E+00  0.14999999963E+04  0.15000000000E+04  0.10566000000E+00 0. -1.
        994   -1    0    0    0    0 -0.00000000000E+00 -0.00000000000E+00  0.11368683772E-12  0.17120000000E+03  0.17120000000E+03 0.  0.
         13    1    1    2    0    0 -0.23848449706E+02 -0.56613462785E+01  0.41558868836E+02  0.48248835613E+02  0.10566000000E+00 0. -1.
        994    1    1    2    0    0  0.12280989296E+02  0.14232682845E+02  0.80111093691E+01  0.17241522506E+03  0.17120000000E+03 0.  0.
        998    1    1    2    0    0  0.11567460410E+02 -0.85713365664E+01  0.14504300181E+04  0.14505359393E+04  0.10000000000E+02 0. -1.
</event>
<event>
 5    1  0.1533416E-008  0.3850048E+03  0.7957747E-01  0.3429652E+00
         13   -1    0    0    0    0  0.00000000000E+00  0.00000000000E+00  0.14999999963E+04  0.15000000000E+04  0.10566000000E+00 0. -1.
        994   -1    0    0    0    0 -0.00000000000E+00 -0.00000000000E+00  0.11368683772E-12  0.17120000000E+03  0.17120000000E+03 0.  0.
         13    1    1    2    0    0  0.15315702927E+01  0.18220238073E+02  0.10366701190E+03  0.10526719956E+03  0.10566000000E+00 0. -1.
        994    1    1    2    0    0 -0.11525282534E+01 -0.10488340439E+02  0.19939689231E+01  0.17153643787E+03  0.17120000000E+03 0.  0.
        998    1    1    2    0    0 -0.37904203925E+00 -0.77318976335E+01  0.13943390155E+04  0.13943963626E+04  0.10000000000E+02 0.  0.
</event>
<event>
 5    1  0.1533416E-008  0.3808684E+03  0.7957747E-01  0.3447386E+00
         13   -1    0    0    0    0  0.00000000000E+00  0.00000000000E+00  0.14999999963E+04  0.15000000000E+04  0.10566000000E+00 0.  1.
        994   -1    0    0    0    0 -0.00000000000E+00 -0.00000000000E+00  0.11368683772E-12  0.17120000000E+03  0.17120000000E+03 0.  0.
         13    1    1    2    0    0  0.20092854954E+02  0.11209158461E+02  0.76830971055E+02  0.80202103033E+02  0.10566000000E+00 0.  1.
        994    1    1    2    0    0  0.66037654518E+01 -0.39729433349E+01  0.38934521411E+01  0.17141759818E+03  0.17120000000E+03 0.  0.
        998    1    1    2    0    0 -0.26696620406E+02 -0.72362151261E+01  0.14192755731E+04  0.14195802988E+04  0.10000000000E+02 0.  1.
</event>
<event>
 5    1  0.1533416E-008  0.3791209E+03  0.7957747E-01  0.3454995E+00
         13   -1    0    0    0    0  0.00000000000E+00  0.00000000000E+00  0.14999999963E+04  0.15000000000E+04  0.10566000000E+00 0.  1.
        994   -1    0    0    0    0 -0.00000000000E+00 -0.00000000000E+00  0.11368683772E-12  0.17120000000E+03  0.17120000000E+03 0.  0.
         13    1    1    2    0    0  0.86108343361E+00  0.38586386996E+02  0.22331384553E+03  0.22662465774E+03  0.10566000000E+00 0.  1.
        994    1    1    2    0    0  0.53024442204E+01  0.18412300327E+02  0.58094041998E+01  0.17236681205E+03  0.17120000000E+03 0.  0.
        998    1    1    2    0    0 -0.61635276541E+01 -0.56998687323E+02  0.12708767465E+04  0.12722085302E+04  0.10000000000E+02 0.  1.
</event>
<event>
 5    1  0.1533416E-008  0.3847909E+03  0.7957747E-01  0.3430559E+00
         13   -1    0    0    0    0  0.00000000000E+00  0.00000000000E+00  0.14999999963E+04  0.15000000000E+04  0.10566000000E+00 0. -1.
        994   -1    0    0    0    0 -0.00000000000E+00 -0.00000000000E+00  0.11368683772E-12  0.17120000000E+03  0.17120000000E+03 0.  0.
         13    1    1    2    0    0  0.43148842487E+01 -0.95606239607E+01  0.31292787413E+02  0.33004143145E+02  0.10566000000E+00 0. -1.
        994    1    1    2    0    0 -0.18393034354E+02  0.75217694232E+00  0.28499536018E+01  0.17221042860E+03  0.17120000000E+03 0.  0.
        998    1    1    2    0    0  0.14078150105E+02  0.88084470184E+01  0.14658572553E+04  0.14659854283E+04  0.10000000000E+02 0. -1.
</event>
<event>
 5    1  0.1533416E-008  0.3848559E+03  0.7957747E-01  0.3430284E+00
         13   -1    0    0    0    0  0.00000000000E+00  0.00000000000E+00  0.14999999963E+04  0.15000000000E+04  0.10566000000E+00 0. -1.
        994   -1    0    0    0    0 -0.00000000000E+00 -0.00000000000E+00  0.11368683772E-12  0.17120000000E+03  0.17120000000E+03 0.  0.
         13    1    1    2    0    0 -0.12341942410E+02  0.60000994966E-01  0.46413657132E+02  0.48026720427E+02  0.10566000000E+00 0. -1.
        994    1    1    2    0    0  0.78200582896E+00 -0.27568026567E+01  0.17287287099E+01  0.17123270715E+03  0.17120000000E+03 0.  0.
        998    1    1    2    0    0  0.11559936581E+02  0.26968016617E+01  0.14518576104E+04  0.14519405724E+04  0.10000000000E+02 0. -1.
</event>
<event>
 5    1  0.1533416E-008  0.3835000E+03  0.7957747E-01  0.3436059E+00
         13   -1    0    0    0    0  0.00000000000E+00  0.00000000000E+00  0.14999999963E+04  0.15000000000E+04  0.10566000000E+00 0.  1.
        994   -1    0    0    0    0 -0.00000000000E+00 -0.00000000000E+00  0.11368683772E-12  0.17120000000E+03  0.17120000000E+03 0.  0.
         13    1    1    2    0    0 -0.48591315622E+00  0.10349281055E+02  0.22016849945E+02  0.24333034654E+02  0.10566000000E+00 0.  1.
        994    1    1    2    0    0 -0.35485125001E+00 -0.37552154708E+01  0.24237383904E+01  0.17125869925E+03  0.17120000000E+03 0.  0.
        998    1    1    2    0    0  0.84076440623E+00 -0.65940655844E+01  0.14755594079E+04  0.14756082661E+04  0.10000000000E+02 0.  1.
</event>
<event>
 5    1  0.1533416E-008  0.3844145E+03  0.7957747E-01  0.3432159E+00
         13   -1    0    0    0    0  0.00000000000E+00  0.00000000000E+00  0.14999999963E+04  0.15000000000E+04  0.10566000000E+00 0.  1.
        994   -1    0    0    0    0 -0.00000000000E+00 -0.00000000000E+00  0.11368683772E-12  0.17120000000E+03  0.17120000000E+03 0.  0.
         13    1    1    2    0    0 -0.10010500100E+02 -0.50695192459E+01  0.34278339884E+02  0.36068350210E+02  0.10566000000E+00 0.  1.
        994    1    1    2    0    0 -0.14060185627E+01 -0.95671718893E+01  0.22292528394E+01  0.17148736757E+03  0.17120000000E+03 0.  0.
        998    1    1    2    0    0  0.11416518663E+02  0.14636691135E+02  0.14634924036E+04  0.14636442822E+04  0.10000000000E+02 0.  1.
</event>
<event>
 5    1  0.1533416E-008  0.3815518E+03  0.7957747E-01  0.3444430E+00
         13   -1    0    0    0    0  0.00000000000E+00  0.00000000000E+00  0.14999999963E+04  0.15000000000E+04  0.10566000000E+00 0. -1.
        994   -1    0    0    0    0 -0.00000000000E+00 -0.00000000000E+00  0.11368683772E-12  0.17120000000E+03  0.17120000000E+03 0.  0.
         13    1    1    2    0    0 -0.22388925925E+02  0.46416194653E+01  0.73679834443E+02  0.77146210555E+02  0.10566000000E+00 0. -1.
        994    1    1    2    0    0  0.19790976380E+02 -0.19204807391E+02  0.58853270955E+01  0.17350672739E+03  0.17120000000E+03 0.  0.
        998    1    1    2    0    0  0.25979495443E+01  0.14563187926E+02  0.14204348347E+04  0.14205470621E+04  0.10000000000E+02 0. -1.
</event>
<event>
 5    1  0.1533416E-008  0.3850490E+03  0.7957747E-01  0.3429464E+00
         13   -1    0    0    0    0  0.00000000000E+00  0.00000000000E+00  0.14999999963E+04  0.15000000000E+04  0.10566000000E+00 0. -1.
        994   -1    0    0    0    0 -0.00000000000E+00 -0.00000000000E+00  0.11368683772E-12  0.17120000000E+03  0.17120000000E+03 0.  0.
         13    1    1    2    0    0  0.12902735851E+02  0.36858386923E+01  0.56894417642E+02  0.58455555101E+02  0.10566000000E+00 0. -1.
        994    1    1    2    0    0 -0.53906584524E+01 -0.47943274778E+01  0.17769714398E+01  0.17136114613E+03  0.17120000000E+03 0.  0.
        998    1    1    2    0    0 -0.75120773989E+01  0.11084887855E+01  0.14413286072E+04  0.14413832988E+04  0.10000000000E+02 0. -1.
</event>
<event>
 5    1  0.1533416E-008  0.3701028E+03  0.7957747E-01  0.3495419E+00
         13   -1    0    0    0    0  0.00000000000E+00  0.00000000000E+00  0.14999999963E+04  0.15000000000E+04  0.10566000000E+00 0. -1.
        994   -1    0    0    0    0 -0.00000000000E+00 -0.00000000000E+00  0.11368683772E-12  0.17120000000E+03  0.17120000000E+03 0.  0.
         13    1    1    2    0    0  0.31762790197E+02  0.45355413268E+02  0.16361774070E+03  0.17273321797E+03  0.10566000000E+00 0. -1.
        994    1    1    2    0    0  0.12323833025E+02  0.95990144351E+00  0.11527701689E+02  0.17203234050E+03  0.17120000000E+03 0.  0.
        998    1    1    2    0    0 -0.44086623222E+02 -0.46315314711E+02  0.13248545539E+04  0.13264344415E+04  0.10000000000E+02 0. -1.
</event>
<event>
 5    1  0.1533416E-008  0.3824081E+03  0.7957747E-01  0.3440740E+00
         13   -1    0    0    0    0  0.00000000000E+00  0.00000000000E+00  0.14999999963E+04  0.15000000000E+04  0.10566000000E+00 0. -1.
        994   -1    0    0    0    0 -0.00000000000E+00 -0.00000000000E+00  0.11368683772E-12  0.17120000000E+03  0.17120000000E+03 0.  0.
         13    1    1    2    0    0  0.19385085461E+02  0.77798410541E+01  0.78469554086E+02  0.81202152358E+02  0.10566000000E+00 0. -1.
        994    1    1    2    0    0 -0.62673405924E+01  0.10850101037E+02  0.34433424938E+01  0.17169246011E+03  0.17120000000E+03 0.  0.
        998    1    1    2    0    0 -0.13117744868E+02 -0.18629942092E+02  0.14180870997E+04  0.14183053875E+04  0.10000000000E+02 0. -1.
</event>
<event>
 5    1  0.1533416E-008  0.3696132E+03  0.7957747E-01  0.3497670E+00
         13   -1    0    0    0    0  0.00000000000E+00  0.00000000000E+00  0.14999999963E+04  0.15000000000E+04  0.10566000000E+00 0.  1.
        994   -1    0    0    0    0 -0.00000000000E+00 -0.00000000000E+00  0.11368683772E-12  0.17120000000E+03  0.17120000000E+03 0.  0.
         13    1    1    2    0    0  0.79896208495E+02 -0.33432707520E+02  0.28870697115E+03  0.30141810898E+03  0.10566000000E+00 0.  1.
        994    1    1    2    0    0 -0.60780332257E+02  0.67323623095E+02  0.40035789125E+02  0.19783584970E+03  0.17120000000E+03 0.  0.
        998    1    1    2    0    0 -0.19115876238E+02 -0.33890915576E+02  0.11712572360E+04  0.11719460413E+04  0.10000000000E+02 0.  1.
</event>
<event>
 5    1  0.1533416E-008  0.3831471E+03  0.7957747E-01  0.3437569E+00
         13   -1    0    0    0    0  0.00000000000E+00  0.00000000000E+00  0.14999999963E+04  0.15000000000E+04  0.10566000000E+00 0. -1.
        994   -1    0    0    0    0 -0.00000000000E+00 -0.00000000000E+00  0.11368683772E-12  0.17120000000E+03  0.17120000000E+03 0.  0.
         13    1    1    2    0    0  0.20192892087E+02  0.10571933369E+02  0.11378730773E+03  0.11604775410E+03  0.10566000000E+00 0. -1.
        994    1    1    2    0    0  0.10131756125E+01  0.44845799699E+01  0.26227930696E+01  0.17128180588E+03  0.17120000000E+03 0.  0.
        998    1    1    2    0    0 -0.21206067700E+02 -0.15056513338E+02  0.13835898955E+04  0.13838704400E+04  0.10000000000E+02 0. -1.
</event>
<event>
 5    1  0.1533416E-008  0.3759048E+03  0.7957747E-01  0.3469186E+00
         13   -1    0    0    0    0  0.00000000000E+00  0.00000000000E+00  0.14999999963E+04  0.15000000000E+04  0.10566000000E+00 0. -1.
        994   -1    0    0    0    0 -0.00000000000E+00 -0.00000000000E+00  0.11368683772E-12  0.17120000000E+03  0.17120000000E+03 0.  0.
         13    1    1    2    0    0  0.84317341820E+02 -0.20815744805E+03  0.10502626266E+04  0.10740067659E+04  0.10566000000E+00 0. -1.
        994    1    1    2    0    0 -0.87055426801E+02  0.19624630684E+03  0.18299001569E+03  0.32997885709E+03  0.17120000000E+03 0.  0.
        998    1    1    2    0    0  0.27380849810E+01  0.11911141210E+02  0.26674735402E+03  0.26721437699E+03  0.10000000000E+02 0.  0.
</event>
<event>
 5    1  0.1533416E-008  0.3822635E+03  0.7957747E-01  0.3441362E+00
         13   -1    0    0    0    0  0.00000000000E+00  0.00000000000E+00  0.14999999963E+04  0.15000000000E+04  0.10566000000E+00 0. -1.
        994   -1    0    0    0    0 -0.00000000000E+00 -0.00000000000E+00  0.11368683772E-12  0.17120000000E+03  0.17120000000E+03 0.  0.
         13    1    1    2    0    0  0.15080142248E+02 -0.21603493464E+02  0.90586561823E+02  0.94340118545E+02  0.10566000000E+00 0. -1.
        994    1    1    2    0    0 -0.33579729494E+02  0.49272963093E+02  0.14883141421E+02  0.18189659431E+03  0.17120000000E+03 0.  0.
        998    1    1    2    0    0  0.18499587245E+02 -0.27669469628E+02  0.13945302930E+04  0.13949632871E+04  0.10000000000E+02 0. -1.
</event>
<event>
 5    1  0.1533416E-008  0.3826266E+03  0.7957747E-01  0.3439801E+00
         13   -1    0    0    0    0  0.00000000000E+00  0.00000000000E+00  0.14999999963E+04  0.15000000000E+04  0.10566000000E+00 0.  1.
        994   -1    0    0    0    0 -0.00000000000E+00 -0.00000000000E+00  0.11368683772E-12  0.17120000000E+03  0.17120000000E+03 0.  0.
         13    1    1    2    0    0  0.32248469870E+02 -0.16958188781E+02  0.20172417414E+03  0.20498828642E+03  0.10566000000E+00 0.  1.
        994    1    1    2    0    0 -0.32090136341E+02  0.22643277790E+02  0.79420410357E+01  0.17582665013E+03  0.17120000000E+03 0.  0.
        998    1    1    2    0    0 -0.15833352868E+00 -0.56850890091E+01  0.12903337811E+04  0.12903850634E+04  0.10000000000E+02 0.  1.
</event>
<event>
 5    1  0.1533416E-008  0.3798239E+03  0.7957747E-01  0.3451926E+00
         13   -1    0    0    0    0  0.00000000000E+00  0.00000000000E+00  0.14999999963E+04  0.15000000000E+04  0.10566000000E+00 0. -1.
        994   -1    0    0    0    0 -0.00000000000E+00 -0.00000000000E+00  0.11368683772E-12  0.17120000000E+03  0.17120000000E+03 0.  0.
         13    1    1    2    0    0  0.35267960260E+00 -0.20891613040E+02  0.49057723833E+02  0.53322184033E+02  0.10566000000E+00 0. -1.
        994    1    1    2    0    0 -0.13352200965E+00  0.19452769762E+02  0.54888622931E+01  0.17238908228E+03  0.17120000000E+03 0.  0.
        998    1    1    2    0    0 -0.21915759295E+00  0.14388432773E+01  0.14454534102E+04  0.14454887337E+04  0.10000000000E+02 0. -1.
</event>
<event>
 5    1  0.1533416E-008  0.3732254E+03  0.7957747E-01  0.3481197E+00
         13   -1    0    0    0    0  0.00000000000E+00  0.00000000000E+00  0.14999999963E+04  0.15000000000E+04  0.10566000000E+00 0. -1.
        994   -1    0    0    0    0 -0.00000000000E+00 -0.00000000000E+00  0.11368683772E-12  0.17120000000E+03  0.17120000000E+03 0.  0.
         13    1    1    2    0    0  0.56370244914E+01 -0.91677614034E+01  0.40727753537E+01  0.11507500049E+02  0.10566000000E+00 0. -1.
        994    1    1    2    0    0 -0.42564338380E+01  0.10504268778E+02  0.80322324999E+01  0.17176266664E+03  0.17120000000E+03 0.  0.
        998    1    1    2    0    0 -0.13805906534E+01 -0.13365073751E+01  0.14878949884E+04  0.14879298333E+04  0.10000000000E+02 0. -1.
</event>
<event>
 5    1  0.1533416E-008  0.2368076E+03  0.7957747E-01  0.4484833E+00
         13   -1    0    0    0    0  0.00000000000E+00  0.00000000000E+00  0.14999999963E+04  0.15000000000E+04  0.10566000000E+00 0.  1.
        994   -1    0    0    0    0 -0.00000000000E+00 -0.00000000000E+00  0.11368683772E-12  0.17120000000E+03  0.17120000000E+03 0.  0.
         13    1    1    2    0    0  0.19083893119E+03  0.47411031258E+02  0.38222772751E+03  0.42984340216E+03  0.10566000000E+00 0.  1.
        994    1    1    2    0    0 -0.80023400220E+02  0.70665985743E+02  0.12925011703E+03  0.23960897078E+03  0.17120000000E+03 0.  0.
        998    1    1    2    0    0 -0.11081553097E+03 -0.11807701700E+03  0.98852215174E+03  0.10017476271E+04  0.10000000000E+02 0.  1.
</event>
<event>
 5    1  0.1533416E-008  0.3630047E+03  0.7957747E-01  0.3528671E+00
         13   -1    0    0    0    0  0.00000000000E+00  0.00000000000E+00  0.14999999963E+04  0.15000000000E+04  0.10566000000E+00 0. -1.
        994   -1    0    0    0    0 -0.00000000000E+00 -0.00000000000E+00  0.11368683772E-12  0.17120000000E+03  0.17120000000E+03 0.  0.
         13    1    1    2    0    0 -0.17395552572E+03  0.12688470496E+03  0.11455891191E+04  0.11656477573E+04  0.10566000000E+00 0. -1.
        994    1    1    2    0    0  0.14346635570E+03 -0.14312342284E+03  0.16424112369E+03  0.31201201274E+03  0.17120000000E+03 0.  0.
        998    1    1    2    0    0  0.30489170022E+02  0.16238717882E+02  0.19016975351E+03  0.19354022992E+03  0.10000000000E+02 0. -1.
</event>
<event>
 5    1  0.1533416E-008  0.3795725E+03  0.7957747E-01  0.3453022E+00
         13   -1    0    0    0    0  0.00000000000E+00  0.00000000000E+00  0.14999999963E+04  0.15000000000E+04  0.10566000000E+00 0.  1.
        994   -1    0    0    0    0 -0.00000000000E+00 -0.00000000000E+00  0.11368683772E-12  0.17120000000E+03  0.17120000000E+03 0.  0.
         13    1    1    2    0    0  0.91083046319E+01 -0.74118317870E+01  0.13887278242E+02  0.18186921804E+02  0.10566000000E+00 0.  1.
        994    1    1    2    0    0 -0.83456644179E+01  0.68138569694E+01  0.47378042559E+01  0.17160409538E+03  0.17120000000E+03 0.  0.
        998    1    1    2    0    0 -0.76264021395E+00  0.59797481764E+00  0.14813749138E+04  0.14814089828E+04  0.10000000000E+02 0.  1.
</event>
<event>
 5    1  0.1533416E-008  0.3848884E+03  0.7957747E-01  0.3430146E+00
         13   -1    0    0    0    0  0.00000000000E+00  0.00000000000E+00  0.14999999963E+04  0.15000000000E+04  0.10566000000E+00 0. -1.
        994   -1    0    0    0    0 -0.00000000000E+00 -0.00000000000E+00  0.11368683772E-12  0.17120000000E+03  0.17120000000E+03 0.  0.
         13    1    1    2    0    0 -0.18534506293E+02  0.53552853443E+01  0.10740256767E+03  0.10912162806E+03  0.10566000000E+00 0. -1.
        994    1    1    2    0    0  0.14332703849E+02 -0.68053901238E+01  0.25141621835E+01  0.17195203036E+03  0.17120000000E+03 0.  0.
        998    1    1    2    0    0  0.42018024436E+01  0.14501047794E+01  0.13900832664E+04  0.13901263416E+04  0.10000000000E+02 0. -1.
</event>
<event>
 5    1  0.1533416E-008  0.3803109E+03  0.7957747E-01  0.3449806E+00
         13   -1    0    0    0    0  0.00000000000E+00  0.00000000000E+00  0.14999999963E+04  0.15000000000E+04  0.10566000000E+00 0.  1.
        994   -1    0    0    0    0 -0.00000000000E+00 -0.00000000000E+00  0.11368683772E-12  0.17120000000E+03  0.17120000000E+03 0.  0.
         13    1    1    2    0    0  0.21664676042E+02 -0.84873399691E+01  0.71938984235E+02  0.75608344411E+02  0.10566000000E+00 0.  1.
        994    1    1    2    0    0  0.70708790310E+01  0.12407446417E+02  0.46576174097E+01  0.17185771864E+03  0.17120000000E+03 0.  0.
        998    1    1    2    0    0 -0.28735555073E+02 -0.39201064479E+01  0.14234033946E+04  0.14237339369E+04  0.10000000000E+02 0.  1.
</event>
<event>
 5    1  0.1533416E-008  0.3741945E+03  0.7957747E-01  0.3476833E+00
         13   -1    0    0    0    0  0.00000000000E+00  0.00000000000E+00  0.14999999963E+04  0.15000000000E+04  0.10566000000E+00 0. -1.
        994   -1    0    0    0    0 -0.00000000000E+00 -0.00000000000E+00  0.11368683772E-12  0.17120000000E+03  0.17120000000E+03 0.  0.
         13    1    1    2    0    0 -0.23502029575E+02 -0.34365194168E+01  0.37960154656E+02  0.44778784769E+02  0.10566000000E+00 0. -1.
        994    1    1    2    0    0  0.60949216366E+01  0.89548813715E+00  0.72223219098E+01  0.17146297531E+03  0.17120000000E+03 0.  0.
        998    1    1    2    0    0  0.17407107939E+02  0.25410312797E+01  0.14548175197E+04  0.14549582399E+04  0.10000000000E+02 0. -1.
</event>
<event>
 5    1  0.1638180E-008  0.3861807E+03  0.7957747E-01  0.3424680E+00
         13   -1    0    0    0    0  0.00000000000E+00  0.00000000000E+00  0.14999999963E+04  0.15000000000E+04  0.10566000000E+00 0.  1.
        994   -1    0    0    0    0 -0.00000000000E+00 -0.00000000000E+00  0.11368683772E-12  0.17120000000E+03  0.17120000000E+03 0.  0.
         13    1    1    2    0    0 -0.96059227581E+01 -0.36260604186E+01  0.47894859879E+02  0.48983168875E+02  0.10566000000E+00 0.  1.
        994    1    1    2    0    0  0.16594242229E+02  0.39766892509E+01  0.19996012961E+01  0.17205993531E+03  0.17120000000E+03 0.  0.
        998    1    1    2    0    0 -0.69883194708E+01 -0.35062883235E+00  0.14501055351E+04  0.14501568958E+04  0.10000000000E+02 0.  1.
</event>
<event>
 5    1  0.1533416E-008  0.3843957E+03  0.7957747E-01  0.3432239E+00
         13   -1    0    0    0    0  0.00000000000E+00  0.00000000000E+00  0.14999999963E+04  0.15000000000E+04  0.10566000000E+00 0. -1.
        994   -1    0    0    0    0 -0.00000000000E+00 -0.00000000000E+00  0.11368683772E-12  0.17120000000E+03  0.17120000000E+03 0.  0.
         13    1    1    2    0    0 -0.20897555557E+02 -0.11748154679E+02  0.13495638585E+03  0.13706919498E+03  0.10566000000E+00 0. -1.
        994    1    1    2    0    0  0.22884500206E+02  0.12726190555E+02  0.41930228950E+01  0.17324167431E+03  0.17120000000E+03 0.  0.
        998    1    1    2    0    0 -0.19869446498E+01 -0.97803587639E+00  0.13608505875E+04  0.13608891307E+04  0.10000000000E+02 0. -1.
</event>
<event>
 5    1  0.1533416E-008  0.3827509E+03  0.7957747E-01  0.3439267E+00
         13   -1    0    0    0    0  0.00000000000E+00  0.00000000000E+00  0.14999999963E+04  0.15000000000E+04  0.10566000000E+00 0.  1.
        994   -1    0    0    0    0 -0.00000000000E+00 -0.00000000000E+00  0.11368683772E-12  0.17120000000E+03  0.17120000000E+03 0.  0.
         13    1    1    2    0    0 -0.18218011701E+02  0.20192207510E+02  0.13631183972E+03  0.13899838131E+03  0.10566000000E+00 0.  1.
        994    1    1    2    0    0 -0.52541587175E+01 -0.23811670185E+02  0.47231769205E+01  0.17299234151E+03  0.17120000000E+03 0.  0.
        998    1    1    2    0    0  0.23472170418E+02  0.36194626748E+01  0.13589649796E+04  0.13592092772E+04  0.10000000000E+02 0.  1.
</event>
<event>
 5    1  0.1533416E-008  0.3781288E+03  0.7957747E-01  0.3459347E+00
         13   -1    0    0    0    0  0.00000000000E+00  0.00000000000E+00  0.14999999963E+04  0.15000000000E+04  0.10566000000E+00 0.  1.
        994   -1    0    0    0    0 -0.00000000000E+00 -0.00000000000E+00  0.11368683772E-12  0.17120000000E+03  0.17120000000E+03 0.  0.
         13    1    1    2    0    0 -0.18387659501E+02  0.13609075540E+02  0.46999319569E+02  0.52271026037E+02  0.10566000000E+00 0.  1.
        994    1    1    2    0    0  0.29374443315E+02 -0.11569419325E+02  0.84406524305E+01  0.17429111853E+03  0.17120000000E+03 0.  0.
        998    1    1    2    0    0 -0.10986783814E+02 -0.20396562151E+01  0.14445600243E+04  0.14446378554E+04  0.10000000000E+02 0.  1.
</event>
<event>
 5    1  0.1533416E-008  0.3746966E+03  0.7957747E-01  0.3474581E+00
         13   -1    0    0    0    0  0.00000000000E+00  0.00000000000E+00  0.14999999963E+04  0.15000000000E+04  0.10566000000E+00 0. -1.
        994   -1    0    0    0    0 -0.00000000000E+00 -0.00000000000E+00  0.11368683772E-12  0.17120000000E+03  0.17120000000E+03 0.  0.
         13    1    1    2    0    0  0.12073459649E+02 -0.13676696316E+02  0.21354904082E+02  0.28086714695E+02  0.10566000000E+00 0. -1.
        994    1    1    2    0    0 -0.50384330608E+01  0.14755116317E+02  0.76622079111E+01  0.17207919309E+03  0.17120000000E+03 0.  0.
        998    1    1    2    0    0 -0.70350265879E+01 -0.10784200012E+01  0.14709828843E+04  0.14710340922E+04  0.10000000000E+02 0. -1.
</event>
<event>
 5    1  0.1533416E-008  0.3843274E+03  0.7957747E-01  0.3432530E+00
         13   -1    0    0    0    0  0.00000000000E+00  0.00000000000E+00  0.14999999963E+04  0.15000000000E+04  0.10566000000E+00 0.  1.
        994   -1    0    0    0    0 -0.00000000000E+00 -0.00000000000E+00  0.11368683772E-12  0.17120000000E+03  0.17120000000E+03 0.  0.
         13    1    1    2    0    0  0.14547967358E+02  0.10412951111E+02  0.10035866329E+03  0.10194089153E+03  0.10566000000E+00 0.  1.
        994    1    1    2    0    0 -0.51006130965E+00  0.28117639905E+02  0.45753443226E+01  0.17355470496E+03  0.17120000000E+03 0.  0.
        998    1    1    2    0    0 -0.14037906048E+02 -0.38530591017E+02  0.13950659887E+04  0.13957044035E+04  0.10000000000E+02 0.  1.
</event>
<event>
 5    1  0.1533416E-008  0.3834139E+03  0.7957747E-01  0.3436427E+00
         13   -1    0    0    0    0  0.00000000000E+00  0.00000000000E+00  0.14999999963E+04  0.15000000000E+04  0.10566000000E+00 0.  1.
        994   -1    0    0    0    0 -0.00000000000E+00 -0.00000000000E+00  0.11368683772E-12  0.17120000000E+03  0.17120000000E+03 0.  0.
         13    1    1    2    0    0  0.98957245054E+01 -0.11747767978E+02  0.46585502109E+02  0.49052579817E+02  0.10566000000E+00 0.  1.
        994    1    1    2    0    0 -0.10902464959E+02  0.13294564360E+02  0.33974480393E+01  0.17209471763E+03  0.17120000000E+03 0.  0.
        998    1    1    2    0    0  0.10067404539E+01 -0.15467963817E+01  0.14500170461E+04  0.14500527026E+04  0.10000000000E+02 0.  1.
</event>
<event>
 5    1  0.1533416E-008  0.3806211E+03  0.7957747E-01  0.3448458E+00
         13   -1    0    0    0    0  0.00000000000E+00  0.00000000000E+00  0.14999999963E+04  0.15000000000E+04  0.10566000000E+00 0. -1.
        994   -1    0    0    0    0 -0.00000000000E+00 -0.00000000000E+00  0.11368683772E-12  0.17120000000E+03  0.17120000000E+03 0.  0.
         13    1    1    2    0    0  0.27920728571E+02 -0.12356969077E+02  0.12617615165E+03  0.12981792703E+03  0.10566000000E+00 0. -1.
        994    1    1    2    0    0 -0.11061950707E+02  0.20744766811E+01  0.42426254594E+01  0.17162199765E+03  0.17120000000E+03 0.  0.
        998    1    1    2    0    0 -0.16858777864E+02  0.10282492396E+02  0.13695812192E+04  0.13697600753E+04  0.10000000000E+02 0. -1.
</event>
<event>
 5    1  0.1533416E-008  0.3734643E+03  0.7957747E-01  0.3480120E+00
         13   -1    0    0    0    0  0.00000000000E+00  0.00000000000E+00  0.14999999963E+04  0.15000000000E+04  0.10566000000E+00 0.  1.
        994   -1    0    0    0    0 -0.00000000000E+00 -0.00000000000E+00  0.11368683772E-12  0.17120000000E+03  0.17120000000E+03 0.  0.
         13    1    1    2    0    0  0.73285990858E+02  0.50384116083E+02  0.25360729886E+03  0.26874908151E+03  0.10566000000E+00 0.  1.
        994    1    1    2    0    0 -0.65422855890E+02 -0.60749789317E+02  0.41555356030E+02  0.19750183440E+03  0.17120000000E+03 0.  0.
        998    1    1    2    0    0 -0.78631349684E+01  0.10365673234E+02  0.12048373414E+04  0.12049490841E+04  0.10000000000E+02 0.  1.
</event>
<event>
 5    1  0.1533416E-008  0.3762746E+03  0.7957747E-01  0.3467542E+00
         13   -1    0    0    0    0  0.00000000000E+00  0.00000000000E+00  0.14999999963E+04  0.15000000000E+04  0.10566000000E+00 0. -1.
        994   -1    0    0    0    0 -0.00000000000E+00 -0.00000000000E+00  0.11368683772E-12  0.17120000000E+03  0.17120000000E+03 0.  0.
         13    1    1    2    0    0  0.25731814174E+02  0.40949008375E+02  0.16686293627E+03  0.17373024553E+03  0.10566000000E+00 0. -1.
        994    1    1    2    0    0 -0.20964154213E+02 -0.49979924126E+02  0.16033519103E+02  0.18028866385E+03  0.17120000000E+03 0.  0.
        998    1    1    2    0    0 -0.47676599609E+01  0.90309157518E+01  0.13171035409E+04  0.13171810906E+04  0.10000000000E+02 0. -1.
</event>
<event>
 5    1  0.1533416E-008  0.3859705E+03  0.7957747E-01  0.3425567E+00
         13   -1    0    0    0    0  0.00000000000E+00  0.00000000000E+00  0.14999999963E+04  0.15000000000E+04  0.10566000000E+00 0.  1.
        994   -1    0    0    0    0 -0.00000000000E+00 -0.00000000000E+00  0.11368683772E-12  0.17120000000E+03  0.17120000000E+03 0.  0.
         13    1    1    2    0    0 -0.52019483825E+00 -0.12100239965E+02  0.63484350806E+02  0.64629407944E+02  0.10566000000E+00 0.  1.
        994    1    1    2    0    0  0.12396519764E+02  0.10017734013E+02  0.19823106397E+01  0.17195173233E+03  0.17120000000E+03 0.  0.
        998    1    1    2    0    0 -0.11876324926E+02  0.20825059522E+01  0.14345333348E+04  0.14346188597E+04  0.10000000000E+02 0.  1.
</event>
<event>
 5    1  0.1533416E-008  0.3846998E+03  0.7957747E-01  0.3430947E+00
         13   -1    0    0    0    0  0.00000000000E+00  0.00000000000E+00  0.14999999963E+04  0.15000000000E+04  0.10566000000E+00 0.  1.
        994   -1    0    0    0    0 -0.00000000000E+00 -0.00000000000E+00  0.11368683772E-12  0.17120000000E+03  0.17120000000E+03 0.  0.
         13    1    1    2    0    0 -0.14934809763E+02 -0.11914655944E+02  0.11190706506E+03  0.11352625222E+03  0.10566000000E+00 0.  1.
        994    1    1    2    0    0  0.10055174334E+02 -0.10081649629E+02  0.24469698006E+01  0.17180853835E+03  0.17120000000E+03 0.  0.
        998    1    1    2    0    0  0.48796354295E+01  0.21996305574E+02  0.13856459614E+04  0.13858652094E+04  0.10000000000E+02 0.  1.
</event>
<event>
 5    1  0.1533416E-008  0.3854118E+03  0.7957747E-01  0.3427928E+00
         13   -1    0    0    0    0  0.00000000000E+00  0.00000000000E+00  0.14999999963E+04  0.15000000000E+04  0.10566000000E+00 0. -1.
        994   -1    0    0    0    0 -0.00000000000E+00 -0.00000000000E+00  0.11368683772E-12  0.17120000000E+03  0.17120000000E+03 0.  0.
         13    1    1    2    0    0  0.62425706886E+01  0.14988064699E+02  0.82184353835E+02  0.83772853309E+02  0.10566000000E+00 0. -1.
        994    1    1    2    0    0 -0.95880567750E+01 -0.25183205168E+02  0.38142508192E+01  0.17334968464E+03  0.17120000000E+03 0.  0.
        998    1    1    2    0    0  0.33454860864E+01  0.10195140469E+02  0.14140013916E+04  0.14140774621E+04  0.10000000000E+02 0. -1.
</event>
<event>
 5    1  0.1533416E-008  0.3816854E+03  0.7957747E-01  0.3443853E+00
         13   -1    0    0    0    0  0.00000000000E+00  0.00000000000E+00  0.14999999963E+04  0.15000000000E+04  0.10566000000E+00 0.  1.
        994   -1    0    0    0    0 -0.00000000000E+00 -0.00000000000E+00  0.11368683772E-12  0.17120000000E+03  0.17120000000E+03 0.  0.
         13    1    1    2    0    0 -0.30147746870E+02 -0.18823271495E+02  0.20935801552E+03  0.21235346010E+03  0.10566000000E+00 0.  1.
        994    1    1    2    0    0  0.42927990101E+01  0.12256974292E+02  0.38457008619E+01  0.17173494390E+03  0.17120000000E+03 0.  0.
        998    1    1    2    0    0  0.25854947860E+02  0.65662972027E+01  0.12867962799E+04  0.12871115960E+04  0.10000000000E+02 0.  1.
</event>
<event>
 5    1  0.1533416E-008  0.4163711E+03  0.7957747E-01  0.3306627E+00
         13   -1    0    0    0    0  0.00000000000E+00  0.00000000000E+00  0.14999999963E+04  0.15000000000E+04  0.10566000000E+00 0. -1.
        994   -1    0    0    0    0 -0.00000000000E+00 -0.00000000000E+00  0.11368683772E-12  0.17120000000E+03  0.17120000000E+03 0.  0.
         13    1    1    2    0    0 -0.14113668087E+02 -0.90817467731E+02  0.11781670856E+03  0.14942488431E+03  0.10566000000E+00 0. -1.
        994    1    1    2    0    0 -0.11865597654E+03  0.21459616538E+02  0.10218745171E+03  0.23300530294E+03  0.17120000000E+03 0.  0.
        998    1    1    2    0    0  0.13276964462E+03  0.69357851192E+02  0.12799958360E+04  0.12887698127E+04  0.10000000000E+02 0. -1.
</event>
<event>
 5    1  0.1533416E-008  0.3790820E+03  0.7957747E-01  0.3455165E+00
         13   -1    0    0    0    0  0.00000000000E+00  0.00000000000E+00  0.14999999963E+04  0.15000000000E+04  0.10566000000E+00 0. -1.
        994   -1    0    0    0    0 -0.00000000000E+00 -0.00000000000E+00  0.11368683772E-12  0.17120000000E+03  0.17120000000E+03 0.  0.
         13    1    1    2    0    0 -0.45597109442E+02  0.43585863979E+01  0.24269550887E+03  0.24698019122E+03  0.10566000000E+00 0. -1.
        994    1    1    2    0    0  0.18840529824E+02  0.97654300813E+01  0.61087088615E+01  0.17261832322E+03  0.17120000000E+03 0.  0.
        998    1    1    2    0    0  0.26756579618E+02 -0.14124016479E+02  0.12511957785E+04  0.12516014856E+04  0.10000000000E+02 0. -1.
</event>
<event>
 5    1  0.1922346E-008  0.3858482E+03  0.7957747E-01  0.3426083E+00
         13   -1    0    0    0    0  0.00000000000E+00  0.00000000000E+00  0.14999999963E+04  0.15000000000E+04  0.10566000000E+00 0.  1.
        994   -1    0    0    0    0 -0.00000000000E+00 -0.00000000000E+00  0.11368683772E-12  0.17120000000E+03  0.17120000000E+03 0.  0.
         13    1    1    2    0    0  0.21301970840E+01  0.11945932990E+02  0.63756247820E+02  0.64900796257E+02  0.10566000000E+00 0.  1.
        994    1    1    2    0    0  0.17127128384E+01 -0.33725236504E+01  0.12565338215E+01  0.17124639026E+03  0.17120000000E+03 0.  0.
        998    1    1    2    0    0 -0.38429099223E+01 -0.85734093398E+01  0.14349872146E+04  0.14350528135E+04  0.10000000000E+02 0. -1.
</event>
<event>
 5    1  0.1533416E-008  0.3838596E+03  0.7957747E-01  0.3434523E+00
         13   -1    0    0    0    0  0.00000000000E+00  0.00000000000E+00  0.14999999963E+04  0.15000000000E+04  0.10566000000E+00 0. -1.
        994   -1    0    0    0    0 -0.00000000000E+00 -0.00000000000E+00  0.11368683772E-12  0.17120000000E+03  0.17120000000E+03 0.  0.
         13    1    1    2    0    0 -0.16605209140E+02  0.92744581708E+01  0.88063609039E+02  0.90094167102E+02  0.10566000000E+00 0. -1.
        994    1    1    2    0    0 -0.79895971459E-01 -0.18295132861E+01  0.22084492108E+01  0.17122403672E+03  0.17120000000E+03 0.  0.
        998    1    1    2    0    0  0.16685105112E+02 -0.74449448847E+01  0.14097279380E+04  0.14098817962E+04  0.10000000000E+02 0. -1.
</event>
<event>
 5    1  0.1997401E-008  0.3864606E+03  0.7957747E-01  0.3423501E+00
         13   -1    0    0    0    0  0.00000000000E+00  0.00000000000E+00  0.14999999963E+04  0.15000000000E+04  0.10566000000E+00 0.  1.
        994   -1    0    0    0    0 -0.00000000000E+00 -0.00000000000E+00  0.11368683772E-12  0.17120000000E+03  0.17120000000E+03 0.  0.
         13    1    1    2    0    0 -0.92238316603E+01  0.63211864060E+01  0.67358560963E+02  0.68280475739E+02  0.10566000000E+00 0.  1.
        994    1    1    2    0    0  0.11182875689E+02 -0.59779413743E+01  0.14331722688E+01  0.17167494422E+03  0.17120000000E+03 0.  0.
        998    1    1    2    0    0 -0.19590440283E+01 -0.34324503171E+00  0.14312082630E+04  0.14312445800E+04  0.10000000000E+02 0.  1.
</event>
<event>
 5    1  0.1533416E-008  0.3821032E+03  0.7957747E-01  0.3442051E+00
         13   -1    0    0    0    0  0.00000000000E+00  0.00000000000E+00  0.14999999963E+04  0.15000000000E+04  0.10566000000E+00 0.  1.
        994   -1    0    0    0    0 -0.00000000000E+00 -0.00000000000E+00  0.11368683772E-12  0.17120000000E+03  0.17120000000E+03 0.  0.
         13    1    1    2    0    0  0.14205864952E+02  0.25146756386E+02  0.13067497903E+03  0.13382872361E+03  0.10566000000E+00 0.  1.
        994    1    1    2    0    0 -0.14306402591E+02 -0.16946194159E+02  0.47097499365E+01  0.17269472602E+03  0.17120000000E+03 0.  0.
        998    1    1    2    0    0  0.10053763945E+00 -0.82005622269E+01  0.13646152673E+04  0.13646765504E+04  0.10000000000E+02 0.  1.
</event>
<event>
 5    1  0.1533416E-008  0.3811153E+03  0.7957747E-01  0.3446317E+00
         13   -1    0    0    0    0  0.00000000000E+00  0.00000000000E+00  0.14999999963E+04  0.15000000000E+04  0.10566000000E+00 0. -1.
        994   -1    0    0    0    0 -0.00000000000E+00 -0.00000000000E+00  0.11368683772E-12  0.17120000000E+03  0.17120000000E+03 0.  0.
         13    1    1    2    0    0 -0.50549937488E+01  0.18428693351E+02  0.50960147246E+02  0.54425338508E+02  0.10566000000E+00 0. -1.
        994    1    1    2    0    0 -0.11777869348E+01 -0.75696408232E+01  0.37667177542E+01  0.17141270317E+03  0.17120000000E+03 0.  0.
        998    1    1    2    0    0  0.62327806836E+01 -0.10859052527E+02  0.14452731313E+04  0.14453619583E+04  0.10000000000E+02 0. -1.
</event>
<event>
 5    1  0.1533416E-008  0.3804691E+03  0.7957747E-01  0.3449118E+00
         13   -1    0    0    0    0  0.00000000000E+00  0.00000000000E+00  0.14999999963E+04  0.15000000000E+04  0.10566000000E+00 0.  1.
        994   -1    0    0    0    0 -0.00000000000E+00 -0.00000000000E+00  0.11368683772E-12  0.17120000000E+03  0.17120000000E+03 0.  0.
         13    1    1    2    0    0  0.79132680294E+01  0.26909413230E+02  0.92499639673E+02  0.96658837336E+02  0.10566000000E+00 0.  1.
        994    1    1    2    0    0 -0.15138799253E+02 -0.28791600099E+02  0.74363713397E+01  0.17442155571E+03  0.17120000000E+03 0.  0.
        998    1    1    2    0    0  0.72255312237E+01  0.18821868689E+01  0.14000639853E+04  0.14001196070E+04  0.10000000000E+02 0.  1.
</event>
<event>
 5    1  0.1533416E-008  0.3791101E+03  0.7957747E-01  0.3455042E+00
         13   -1    0    0    0    0  0.00000000000E+00  0.00000000000E+00  0.14999999963E+04  0.15000000000E+04  0.10566000000E+00 0. -1.
        994   -1    0    0    0    0 -0.00000000000E+00 -0.00000000000E+00  0.11368683772E-12  0.17120000000E+03  0.17120000000E+03 0.  0.
         13    1    1    2    0    0 -0.43959676636E+02 -0.24951392700E+02  0.29946691257E+03  0.30370292731E+03  0.10566000000E+00 0. -1.
        994    1    1    2    0    0  0.30902834384E+02 -0.11038507103E+02  0.82018630979E+01  0.17450943920E+03  0.17120000000E+03 0.  0.
        998    1    1    2    0    0  0.13056842252E+02  0.35989899803E+02  0.11923312206E+04  0.11929876335E+04  0.10000000000E+02 0. -1.
</event>
<event>
 5    1  0.1533416E-008  0.3799507E+03  0.7957747E-01  0.3451373E+00
         13   -1    0    0    0    0  0.00000000000E+00  0.00000000000E+00  0.14999999963E+04  0.15000000000E+04  0.10566000000E+00 0. -1.
        994   -1    0    0    0    0 -0.00000000000E+00 -0.00000000000E+00  0.11368683772E-12  0.17120000000E+03  0.17120000000E+03 0.  0.
         13    1    1    2    0    0  0.22813196834E+02 -0.22742418357E+02  0.12477136133E+03  0.12886257530E+03  0.10566000000E+00 0. -1.
        994    1    1    2    0    0 -0.10125720880E+02  0.14278609965E+02  0.51831873364E+01  0.17217059667E+03  0.17120000000E+03 0.  0.
        998    1    1    2    0    0 -0.12687475954E+02  0.84638083919E+01  0.13700454476E+04  0.13701668280E+04  0.10000000000E+02 0. -1.
</event>
<event>
 5    1  0.1533416E-008  0.3791510E+03  0.7957747E-01  0.3454864E+00
         13   -1    0    0    0    0  0.00000000000E+00  0.00000000000E+00  0.14999999963E+04  0.15000000000E+04  0.10566000000E+00 0. -1.
        994   -1    0    0    0    0 -0.00000000000E+00 -0.00000000000E+00  0.11368683772E-12  0.17120000000E+03  0.17120000000E+03 0.  0.
         13    1    1    2    0    0 -0.96966369743E+01  0.28203327398E+02  0.97349004268E+02  0.10181499026E+03  0.10566000000E+00 0. -1.
        994    1    1    2    0    0 -0.44912735218E+02 -0.33458976125E+02  0.15150183404E+02  0.18076400340E+03  0.17120000000E+03 0.  0.
        998    1    1    2    0    0  0.54609372193E+02  0.52556487270E+01  0.13875008086E+04  0.13886210063E+04  0.10000000000E+02 0. -1.
</event>
<event>
 5    1  0.1533416E-008  0.3784243E+03  0.7957747E-01  0.3458048E+00
         13   -1    0    0    0    0  0.00000000000E+00  0.00000000000E+00  0.14999999963E+04  0.15000000000E+04  0.10566000000E+00 0. -1.
        994   -1    0    0    0    0 -0.00000000000E+00 -0.00000000000E+00  0.11368683772E-12  0.17120000000E+03  0.17120000000E+03 0.  0.
         13    1    1    2    0    0  0.24888962432E+02 -0.46509934398E+02  0.23646584246E+03  0.24227822903E+03  0.10566000000E+00 0. -1.
        994    1    1    2    0    0 -0.29747841340E+02  0.44843249033E+02  0.14724356746E+02  0.18006137212E+03  0.17120000000E+03 0.  0.
        998    1    1    2    0    0  0.48588789080E+01  0.16666853654E+01  0.12488097971E+04  0.12488603988E+04  0.10000000000E+02 0. -1.
</event>
<event>
 5    1  0.1533416E-008  0.3766476E+03  0.7957747E-01  0.3465887E+00
         13   -1    0    0    0    0  0.00000000000E+00  0.00000000000E+00  0.14999999963E+04  0.15000000000E+04  0.10566000000E+00 0.  1.
        994   -1    0    0    0    0 -0.00000000000E+00 -0.00000000000E+00  0.11368683772E-12  0.17120000000E+03  0.17120000000E+03 0.  0.
         13    1    1    2    0    0  0.43430640400E+01 -0.16163789622E+03  0.52958031529E+03  0.55371562485E+03  0.10566000000E+00 0.  1.
        994    1    1    2    0    0  0.23086465691E+01  0.16188127441E+03  0.11537975188E+03  0.26236006556E+03  0.17120000000E+03 0.  0.
        998    1    1    2    0    0 -0.66517106091E+01 -0.24337819470E+00  0.85503992911E+03  0.85512430959E+03  0.10000000000E+02 0.  0.
</event>
<event>
 5    1  0.1533416E-008  0.3719278E+03  0.7957747E-01  0.3487078E+00
         13   -1    0    0    0    0  0.00000000000E+00  0.00000000000E+00  0.14999999963E+04  0.15000000000E+04  0.10566000000E+00 0.  1.
        994   -1    0    0    0    0 -0.00000000000E+00 -0.00000000000E+00  0.11368683772E-12  0.17120000000E+03  0.17120000000E+03 0.  0.
         13    1    1    2    0    0 -0.79017548675E+02 -0.14247516183E+03  0.51183495503E+03  0.53713869446E+03  0.10566000000E+00 0.  1.
        994    1    1    2    0    0  0.84646197495E+02  0.16921378171E+03  0.15121086338E+03  0.29660149675E+03  0.17120000000E+03 0.  0.
        998    1    1    2    0    0 -0.56286488202E+01 -0.26738619879E+02  0.83695417787E+03  0.83745980878E+03  0.10000000000E+02 0.  1.
</event>
<event>
 5    1  0.1558507E-008  0.3859039E+03  0.7957747E-01  0.3425848E+00
         13   -1    0    0    0    0  0.00000000000E+00  0.00000000000E+00  0.14999999963E+04  0.15000000000E+04  0.10566000000E+00 0. -1.
        994   -1    0    0    0    0 -0.00000000000E+00 -0.00000000000E+00  0.11368683772E-12  0.17120000000E+03  0.17120000000E+03 0.  0.
         13    1    1    2    0    0  0.51875545410E+01  0.12664244310E+02  0.81888566787E+02  0.83024347877E+02  0.10566000000E+00 0. -1.
        994    1    1    2    0    0  0.19859314031E+00 -0.67912087782E+01  0.13334272415E+01  0.17133994859E+03  0.17120000000E+03 0.  0.
        998    1    1    2    0    0 -0.53861476814E+01 -0.58730355314E+01  0.14167780023E+04  0.14168357035E+04  0.10000000000E+02 0. -1.
</event>
<event>
 5    1  0.1533416E-008  0.3836476E+03  0.7957747E-01  0.3435428E+00
         13   -1    0    0    0    0  0.00000000000E+00  0.00000000000E+00  0.14999999963E+04  0.15000000000E+04  0.10566000000E+00 0. -1.
        994   -1    0    0    0    0 -0.00000000000E+00 -0.00000000000E+00  0.11368683772E-12  0.17120000000E+03  0.17120000000E+03 0.  0.
         13    1    1    2    0    0 -0.93342266633E+01 -0.64333773811E+01  0.29226400663E+02  0.31348202368E+02  0.10566000000E+00 0. -1.
        994    1    1    2    0    0 -0.79321313838E+01 -0.84971394545E+01  0.27495070402E+01  0.17161619934E+03  0.17120000000E+03 0.  0.
        998    1    1    2    0    0  0.17266358047E+02  0.14930516836E+02  0.14680240886E+04  0.14682355983E+04  0.10000000000E+02 0. -1.
</event>
<event>
 5    1  0.1533416E-008  0.3782997E+03  0.7957747E-01  0.3458596E+00
         13   -1    0    0    0    0  0.00000000000E+00  0.00000000000E+00  0.14999999963E+04  0.15000000000E+04  0.10566000000E+00 0.  1.
        994   -1    0    0    0    0 -0.00000000000E+00 -0.00000000000E+00  0.11368683772E-12  0.17120000000E+03  0.17120000000E+03 0.  0.
         13    1    1    2    0    0 -0.82024906573E+02  0.76444123604E+01  0.43906076623E+03  0.44672238576E+03  0.10566000000E+00 0.  1.
        994    1    1    2    0    0  0.89638379445E+02 -0.40492128647E+01  0.32557035144E+02  0.19601233566E+03  0.17120000000E+03 0.  0.
        998    1    1    2    0    0 -0.76134728720E+01 -0.35951994957E+01  0.10283821949E+04  0.10284652786E+04  0.10000000000E+02 0.  1.
</event>
<event>
 5    1  0.1533416E-008  0.3841293E+03  0.7957747E-01  0.3433373E+00
         13   -1    0    0    0    0  0.00000000000E+00  0.00000000000E+00  0.14999999963E+04  0.15000000000E+04  0.10566000000E+00 0.  1.
        994   -1    0    0    0    0 -0.00000000000E+00 -0.00000000000E+00  0.11368683772E-12  0.17120000000E+03  0.17120000000E+03 0.  0.
         13    1    1    2    0    0  0.11096717188E+02 -0.15496111077E+02  0.91708377790E+02  0.93668053849E+02  0.10566000000E+00 0.  1.
        994    1    1    2    0    0  0.32754553825E+02  0.33761617901E+02  0.93948826703E+01  0.17779317045E+03  0.17120000000E+03 0.  0.
        998    1    1    2    0    0 -0.43851271013E+02 -0.18265506823E+02  0.13988967358E+04  0.13997387757E+04  0.10000000000E+02 0.  1.
</event>
<event>
 5    1  0.1533416E-008  0.3792331E+03  0.7957747E-01  0.3454504E+00
         13   -1    0    0    0    0  0.00000000000E+00  0.00000000000E+00  0.14999999963E+04  0.15000000000E+04  0.10566000000E+00 0.  1.
        994   -1    0    0    0    0 -0.00000000000E+00 -0.00000000000E+00  0.11368683772E-12  0.17120000000E+03  0.17120000000E+03 0.  0.
         13    1    1    2    0    0  0.11789962799E+02  0.44014996118E+02  0.24953855220E+03  0.25366478531E+03  0.10566000000E+00 0.  1.
        994    1    1    2    0    0 -0.92592447363E+01 -0.13195070080E+02  0.53920724016E+01  0.17204173311E+03  0.17120000000E+03 0.  0.
        998    1    1    2    0    0 -0.25307180631E+01 -0.30819926038E+02  0.12450693717E+04  0.12454934816E+04  0.10000000000E+02 0.  1.
</event>
<event>
 5    1  0.1533416E-008  0.3813591E+03  0.7957747E-01  0.3445262E+00
         13   -1    0    0    0    0  0.00000000000E+00  0.00000000000E+00  0.14999999963E+04  0.15000000000E+04  0.10566000000E+00 0. -1.
        994   -1    0    0    0    0 -0.00000000000E+00 -0.00000000000E+00  0.11368683772E-12  0.17120000000E+03  0.17120000000E+03 0.  0.
         13    1    1    2    0    0 -0.40766773054E+02  0.22210517286E+02  0.27489006175E+03  0.27878270046E+03  0.10566000000E+00 0. -1.
        994    1    1    2    0    0  0.23635788477E+02 -0.42497472788E+02  0.11358576228E+02  0.17833435716E+03  0.17120000000E+03 0.  0.
        998    1    1    2    0    0  0.17130984577E+02  0.20286955502E+02  0.12137513583E+04  0.12140829424E+04  0.10000000000E+02 0. -1.
</event>
<event>
 5    1  0.1533416E-008  0.3819711E+03  0.7957747E-01  0.3442620E+00
         13   -1    0    0    0    0  0.00000000000E+00  0.00000000000E+00  0.14999999963E+04  0.15000000000E+04  0.10566000000E+00 0.  1.
        994   -1    0    0    0    0 -0.00000000000E+00 -0.00000000000E+00  0.11368683772E-12  0.17120000000E+03  0.17120000000E+03 0.  0.
         13    1    1    2    0    0 -0.11925859824E+02 -0.67598298147E+01  0.29511719037E+02  0.32540346590E+02  0.10566000000E+00 0.  1.
        994    1    1    2    0    0  0.44088951592E+01 -0.47081476064E+01  0.32796278168E+01  0.17135285515E+03  0.17120000000E+03 0.  0.
        998    1    1    2    0    0  0.75169646645E+01  0.11467977421E+02  0.14672086494E+04  0.14673067983E+04  0.10000000000E+02 0.  1.
</event>
<event>
 5    1  0.1533416E-008  0.3815707E+03  0.7957747E-01  0.3444348E+00
         13   -1    0    0    0    0  0.00000000000E+00  0.00000000000E+00  0.14999999963E+04  0.15000000000E+04  0.10566000000E+00 0.  1.
        994   -1    0    0    0    0 -0.00000000000E+00 -0.00000000000E+00  0.11368683772E-12  0.17120000000E+03  0.17120000000E+03 0.  0.
         13    1    1    2    0    0 -0.21376561351E+01  0.26314133981E+02  0.97792485373E+02  0.10129355646E+03  0.10566000000E+00 0.  1.
        994    1    1    2    0    0  0.17830853737E+01 -0.25749699538E+02  0.55611371058E+01  0.17322411110E+03  0.17120000000E+03 0.  0.
        998    1    1    2    0    0  0.35457076139E+00 -0.56443444282E+00  0.13966463738E+04  0.13966823324E+04  0.10000000000E+02 0.  0.
</event>
<event>
 5    1  0.1533416E-008  0.3780882E+03  0.7957747E-01  0.3459525E+00
         13   -1    0    0    0    0  0.00000000000E+00  0.00000000000E+00  0.14999999963E+04  0.15000000000E+04  0.10566000000E+00 0.  1.
        994   -1    0    0    0    0 -0.00000000000E+00 -0.00000000000E+00  0.11368683772E-12  0.17120000000E+03  0.17120000000E+03 0.  0.
         13    1    1    2    0    0 -0.98428905257E+01  0.37184277219E+01  0.84917019711E+01  0.13521440937E+02  0.10566000000E+00 0.  1.
        994    1    1    2    0    0  0.89246032449E+01 -0.60814272045E+01  0.54937879771E+01  0.17162824361E+03  0.17120000000E+03 0.  0.
        998    1    1    2    0    0  0.91828728084E+00  0.23629994825E+01  0.14860145063E+04  0.14860503154E+04  0.10000000000E+02 0.  1.
</event>
<event>
 5    1  0.1533416E-008  0.3797761E+03  0.7957747E-01  0.3452134E+00
         13   -1    0    0    0    0  0.00000000000E+00  0.00000000000E+00  0.14999999963E+04  0.15000000000E+04  0.10566000000E+00 0. -1.
        994   -1    0    0    0    0 -0.00000000000E+00 -0.00000000000E+00  0.11368683772E-12  0.17120000000E+03  0.17120000000E+03 0.  0.
         13    1    1    2    0    0 -0.20049374578E+02  0.86392604014E+01  0.55134214995E+02  0.59299300742E+02  0.10566000000E+00 0. -1.
        994    1    1    2    0    0  0.95289975016E+01 -0.66059090563E+01  0.46960984463E+01  0.17165643934E+03  0.17120000000E+03 0.  0.
        998    1    1    2    0    0  0.10520377077E+02 -0.20333513451E+01  0.14401696828E+04  0.14402442599E+04  0.10000000000E+02 0. -1.
</event>
<event>
 5    1  0.1533416E-008  0.3795347E+03  0.7957747E-01  0.3453187E+00
         13   -1    0    0    0    0  0.00000000000E+00  0.00000000000E+00  0.14999999963E+04  0.15000000000E+04  0.10566000000E+00 0. -1.
        994   -1    0    0    0    0 -0.00000000000E+00 -0.00000000000E+00  0.11368683772E-12  0.17120000000E+03  0.17120000000E+03 0.  0.
         13    1    1    2    0    0  0.21555020497E+01 -0.10193910805E+02  0.10905616781E+02  0.15083290357E+02  0.10566000000E+00 0. -1.
        994    1    1    2    0    0  0.33628182609E+01 -0.87760480620E+01  0.46640075423E+01  0.17152119558E+03  0.17120000000E+03 0.  0.
        998    1    1    2    0    0 -0.55183203105E+01  0.18969958867E+02  0.14844303720E+04  0.14845955141E+04  0.10000000000E+02 0. -1.
</event>
<event>
 5    1  0.1533416E-008  0.3786972E+03  0.7957747E-01  0.3456851E+00
         13   -1    0    0    0    0  0.00000000000E+00  0.00000000000E+00  0.14999999963E+04  0.15000000000E+04  0.10566000000E+00 0.  1.
        994   -1    0    0    0    0 -0.00000000000E+00 -0.00000000000E+00  0.11368683772E-12  0.17120000000E+03  0.17120000000E+03 0.  0.
         13    1    1    2    0    0  0.12813410315E+02 -0.19210815917E+01  0.15714916913E+02  0.20367715041E+02  0.10566000000E+00 0.  1.
        994    1    1    2    0    0 -0.29896692504E+01 -0.61896961909E+01  0.49509001022E+01  0.17140945678E+03  0.17120000000E+03 0.  0.
        998    1    1    2    0    0 -0.98237410645E+01  0.81107777826E+01  0.14793341793E+04  0.14794228282E+04  0.10000000000E+02 0.  1.
</event>
<event>
 5    1  0.1533416E-008  0.3851441E+03  0.7957747E-01  0.3429061E+00
         13   -1    0    0    0    0  0.00000000000E+00  0.00000000000E+00  0.14999999963E+04  0.15000000000E+04  0.10566000000E+00 0. -1.
        994   -1    0    0    0    0 -0.00000000000E+00 -0.00000000000E+00  0.11368683772E-12  0.17120000000E+03  0.17120000000E+03 0.  0.
         13    1    1    2    0    0  0.15377903715E+02  0.84634429801E+01  0.99721652986E+02  0.10125477287E+03  0.10566000000E+00 0. -1.
        994    1    1    2    0    0 -0.80403517499E+01 -0.68395400515E+01  0.19249862264E+01  0.17153592083E+03  0.17120000000E+03 0.  0.
        998    1    1    2    0    0 -0.73375519653E+01 -0.16239029286E+01  0.13983533571E+04  0.13984093063E+04  0.10000000000E+02 0. -1.
</event>
<event>
 5    1  0.1533416E-008  0.2756240E+03  0.7957747E-01  0.4087039E+00
         13   -1    0    0    0    0  0.00000000000E+00  0.00000000000E+00  0.14999999963E+04  0.15000000000E+04  0.10566000000E+00 0. -1.
        994   -1    0    0    0    0 -0.00000000000E+00 -0.00000000000E+00  0.11368683772E-12  0.17120000000E+03  0.17120000000E+03 0.  0.
         13    1    1    2    0    0  0.15260935456E+03  0.88840116751E+02  0.57952691875E+03  0.60583301508E+03  0.10566000000E+00 0. -1.
        994    1    1    2    0    0 -0.83207398152E+02 -0.65026165989E+02  0.71968347679E+02  0.21363697348E+03  0.17120000000E+03 0.  0.
        998    1    1    2    0    0 -0.69401956411E+02 -0.23813950762E+02  0.84850472985E+03  0.85173001144E+03  0.10000000000E+02 0.  1.
</event>
<event>
 5    1  0.1533416E-008  0.3822002E+03  0.7957747E-01  0.3441634E+00
         13   -1    0    0    0    0  0.00000000000E+00  0.00000000000E+00  0.14999999963E+04  0.15000000000E+04  0.10566000000E+00 0. -1.
        994   -1    0    0    0    0 -0.00000000000E+00 -0.00000000000E+00  0.11368683772E-12  0.17120000000E+03  0.17120000000E+03 0.  0.
         13    1    1    2    0    0 -0.16074841154E+02 -0.50026688902E+01  0.47742167490E+02  0.50623640079E+02  0.10566000000E+00 0. -1.
        994    1    1    2    0    0 -0.33545235698E+01  0.15172320796E+02  0.38283432747E+01  0.17194635314E+03  0.17120000000E+03 0.  0.
        998    1    1    2    0    0  0.19429364724E+02 -0.10169651906E+02  0.14484294855E+04  0.14486300068E+04  0.10000000000E+02 0. -1.
</event>
<event>
 5    1  0.1533416E-008  0.3818044E+03  0.7957747E-01  0.3443339E+00
         13   -1    0    0    0    0  0.00000000000E+00  0.00000000000E+00  0.14999999963E+04  0.15000000000E+04  0.10566000000E+00 0. -1.
        994   -1    0    0    0    0 -0.00000000000E+00 -0.00000000000E+00  0.11368683772E-12  0.17120000000E+03  0.17120000000E+03 0.  0.
         13    1    1    2    0    0  0.24563524281E+02  0.17976256285E+02  0.12652609316E+03  0.13013599014E+03  0.10566000000E+00 0. -1.
        994    1    1    2    0    0 -0.28430160190E+02 -0.23826681191E+02  0.78111337495E+01  0.17534662402E+03  0.17120000000E+03 0.  0.
        998    1    1    2    0    0  0.38666359083E+01  0.58504249062E+01  0.13656627694E+04  0.13657173858E+04  0.10000000000E+02 0. -1.
</event>
<event>
 5    1  0.1533416E-008  0.3829194E+03  0.7957747E-01  0.3438544E+00
         13   -1    0    0    0    0  0.00000000000E+00  0.00000000000E+00  0.14999999963E+04  0.15000000000E+04  0.10566000000E+00 0. -1.
        994   -1    0    0    0    0 -0.00000000000E+00 -0.00000000000E+00  0.11368683772E-12  0.17120000000E+03  0.17120000000E+03 0.  0.
         13    1    1    2    0    0  0.16614099561E+02 -0.27870106640E+02  0.18181095544E+03  0.18468352886E+03  0.10566000000E+00 0. -1.
        994    1    1    2    0    0  0.49952057294E+01  0.37027982187E+02  0.73026323695E+01  0.17538184622E+03  0.17120000000E+03 0.  0.
        998    1    1    2    0    0 -0.21609305290E+02 -0.91578755466E+01  0.13108864085E+04  0.13111346249E+04  0.10000000000E+02 0. -1.
</event>
<event>
 5    1  0.1533416E-008  0.3779919E+03  0.7957747E-01  0.3459949E+00
         13   -1    0    0    0    0  0.00000000000E+00  0.00000000000E+00  0.14999999963E+04  0.15000000000E+04  0.10566000000E+00 0.  1.
        994   -1    0    0    0    0 -0.00000000000E+00 -0.00000000000E+00  0.11368683772E-12  0.17120000000E+03  0.17120000000E+03 0.  0.
         13    1    1    2    0    0  0.82810916646E+01 -0.15756007388E+02  0.28030165710E+02  0.33204361186E+02  0.10566000000E+00 0.  1.
        994    1    1    2    0    0 -0.26685891806E+02  0.83425995495E+01  0.77854789550E+01  0.17364270636E+03  0.17120000000E+03 0.  0.
        998    1    1    2    0    0  0.18404800141E+02  0.74134078387E+01  0.14641843516E+04  0.14643529325E+04  0.10000000000E+02 0.  1.
</event>
<event>
 5    1  0.1533416E-008  0.3812316E+03  0.7957747E-01  0.3445814E+00
         13   -1    0    0    0    0  0.00000000000E+00  0.00000000000E+00  0.14999999963E+04  0.15000000000E+04  0.10566000000E+00 0.  1.
        994   -1    0    0    0    0 -0.00000000000E+00 -0.00000000000E+00  0.11368683772E-12  0.17120000000E+03  0.17120000000E+03 0.  0.
         13    1    1    2    0    0  0.45129267166E+02  0.11303352246E+02  0.54633874159E+02  0.71758538841E+02  0.10566000000E+00 0.  1.
        994    1    1    2    0    0 -0.41250911533E+02 -0.45069226398E+02  0.30721482079E+02  0.18435325419E+03  0.17120000000E+03 0.  0.
        998    1    1    2    0    0 -0.38783556331E+01  0.33765874151E+02  0.14146446400E+04  0.14150882070E+04  0.10000000000E+02 0.  1.
</event>
<event>
 5    1  0.1533416E-008  0.3860929E+03  0.7957747E-01  0.3425050E+00
         13   -1    0    0    0    0  0.00000000000E+00  0.00000000000E+00  0.14999999963E+04  0.15000000000E+04  0.10566000000E+00 0. -1.
        994   -1    0    0    0    0 -0.00000000000E+00 -0.00000000000E+00  0.11368683772E-12  0.17120000000E+03  0.17120000000E+03 0.  0.
         13    1    1    2    0    0  0.78774055872E+01 -0.93446941586E+01  0.64833108645E+02  0.65975146596E+02  0.10566000000E+00 0. -1.
        994    1    1    2    0    0 -0.93228997528E+01  0.14839660495E+02  0.20956061769E+01  0.17210741863E+03  0.17120000000E+03 0.  0.
        998    1    1    2    0    0  0.14454941656E+01 -0.54949663367E+01  0.14330712815E+04  0.14331174348E+04  0.10000000000E+02 0. -1.
</event>
<event>
 5    1  0.1533416E-008  0.3807499E+03  0.7957747E-01  0.3447900E+00
         13   -1    0    0    0    0  0.00000000000E+00  0.00000000000E+00  0.14999999963E+04  0.15000000000E+04  0.10566000000E+00 0. -1.
        994   -1    0    0    0    0 -0.00000000000E+00 -0.00000000000E+00  0.11368683772E-12  0.17120000000E+03  0.17120000000E+03 0.  0.
         13    1    1    2    0    0  0.69316187260E+01  0.13254021689E+02  0.28347304337E+02  0.32051478223E+02  0.10566000000E+00 0. -1.
        994    1    1    2    0    0  0.29270160153E+02 -0.26275683090E+02  0.89315747506E+01  0.17588736971E+03  0.17120000000E+03 0.  0.
        998    1    1    2    0    0 -0.36201778879E+02  0.13021661401E+02  0.14627211172E+04  0.14632611521E+04  0.10000000000E+02 0. -1.
</event>
<event>
 5    1  0.1533416E-008  0.3754476E+03  0.7957747E-01  0.3471223E+00
         13   -1    0    0    0    0  0.00000000000E+00  0.00000000000E+00  0.14999999963E+04  0.15000000000E+04  0.10566000000E+00 0. -1.
        994   -1    0    0    0    0 -0.00000000000E+00 -0.00000000000E+00  0.11368683772E-12  0.17120000000E+03  0.17120000000E+03 0.  0.
         13    1    1    2    0    0 -0.82895393222E+02 -0.48448987621E+02  0.50689989024E+03  0.51591322963E+03  0.10566000000E+00 0. -1.
        994    1    1    2    0    0  0.81365584837E+02  0.36434274614E+02  0.33921279246E+02  0.19597935592E+03  0.17120000000E+03 0.  0.
        998    1    1    2    0    0  0.15298083853E+01  0.12014713007E+02  0.95917882680E+03  0.95930741445E+03  0.10000000000E+02 0.  0.
</event>
<event>
 5    1  0.1533416E-008  0.3842536E+03  0.7957747E-01  0.3432844E+00
         13   -1    0    0    0    0  0.00000000000E+00  0.00000000000E+00  0.14999999963E+04  0.15000000000E+04  0.10566000000E+00 0.  1.
        994   -1    0    0    0    0 -0.00000000000E+00 -0.00000000000E+00  0.11368683772E-12  0.17120000000E+03  0.17120000000E+03 0.  0.
         13    1    1    2    0    0  0.12610435760E+02 -0.90756110167E+01  0.59074147291E+02  0.61083187929E+02  0.10566000000E+00 0.  1.
        994    1    1    2    0    0 -0.95344070881E+01  0.89245475045E+01  0.25636192322E+01  0.17171652399E+03  0.17120000000E+03 0.  0.
        998    1    1    2    0    0 -0.30760286715E+01  0.15106351226E+00  0.14383622298E+04  0.14384002881E+04  0.10000000000E+02 0.  1.
</event>
<event>
 5    1  0.1533416E-008  0.3829302E+03  0.7957747E-01  0.3438498E+00
         13   -1    0    0    0    0  0.00000000000E+00  0.00000000000E+00  0.14999999963E+04  0.15000000000E+04  0.10566000000E+00 0.  1.
        994   -1    0    0    0    0 -0.00000000000E+00 -0.00000000000E+00  0.11368683772E-12  0.17120000000E+03  0.17120000000E+03 0.  0.
         13    1    1    2    0    0 -0.10110896091E+02 -0.56308463357E+01  0.24748082119E+02  0.27320603632E+02  0.10566000000E+00 0.  1.
        994    1    1    2    0    0 -0.59694570606E-01  0.30787398944E+01  0.26926667012E+01  0.17124886177E+03  0.17120000000E+03 0.  0.
        998    1    1    2    0    0  0.10170590661E+02  0.25521064412E+01  0.14725592475E+04  0.14726305346E+04  0.10000000000E+02 0.  1.
</event>
<event>
 5    1  0.1533416E-008  0.3864625E+03  0.7957747E-01  0.3423493E+00
         13   -1    0    0    0    0  0.00000000000E+00  0.00000000000E+00  0.14999999963E+04  0.15000000000E+04  0.10566000000E+00 0. -1.
        994   -1    0    0    0    0 -0.00000000000E+00 -0.00000000000E+00  0.11368683772E-12  0.17120000000E+03  0.17120000000E+03 0.  0.
         13    1    1    2    0    0  0.36442095354E+00 -0.64178136889E+02  0.11522927408E+03  0.13189678854E+03  0.10566000000E+00 0. -1.
        994    1    1    2    0    0 -0.53597337019E+02 -0.12706043201E+02  0.31272931932E+02  0.18254192489E+03  0.17120000000E+03 0.  0.
        998    1    1    2    0    0  0.53232916065E+02  0.76884180090E+02  0.13534977903E+04  0.13567612866E+04  0.10000000000E+02 0. -1.
</event>
<event>
 5    1  0.1533416E-008  0.3837288E+03  0.7957747E-01  0.3435082E+00
         13   -1    0    0    0    0  0.00000000000E+00  0.00000000000E+00  0.14999999963E+04  0.15000000000E+04  0.10566000000E+00 0. -1.
        994   -1    0    0    0    0 -0.00000000000E+00 -0.00000000000E+00  0.11368683772E-12  0.17120000000E+03  0.17120000000E+03 0.  0.
         13    1    1    2    0    0  0.22566508198E+02 -0.44456617336E+01  0.11916647411E+03  0.12136585564E+03  0.10566000000E+00 0. -1.
        994    1    1    2    0    0 -0.11919867195E+02 -0.35567214539E+01  0.27737418702E+01  0.17167372293E+03  0.17120000000E+03 0.  0.
        998    1    1    2    0    0 -0.10646641003E+02  0.80023831875E+01  0.13780597803E+04  0.13781604214E+04  0.10000000000E+02 0. -1.
</event>
<event>
 5    1  0.1533416E-008  0.3779065E+03  0.7957747E-01  0.3460325E+00
         13   -1    0    0    0    0  0.00000000000E+00  0.00000000000E+00  0.14999999963E+04  0.15000000000E+04  0.10566000000E+00 0. -1.
        994   -1    0    0    0    0 -0.00000000000E+00 -0.00000000000E+00  0.11368683772E-12  0.17120000000E+03  0.17120000000E+03 0.  0.
         13    1    1    2    0    0  0.52645100276E+01 -0.43780802777E+02  0.17845489039E+03  0.18382228599E+03  0.10566000000E+00 0. -1.
        994    1    1    2    0    0 -0.35853233301E+01  0.31554909099E+02  0.85961988496E+01  0.17433273206E+03  0.17120000000E+03 0.  0.
        998    1    1    2    0    0 -0.16791866974E+01  0.12225893678E+02  0.13129489070E+04  0.13130449820E+04  0.10000000000E+02 0. -1.
</event>
<event>
 5    1  0.1533416E-008  0.3809405E+03  0.7957747E-01  0.3447074E+00
         13   -1    0    0    0    0  0.00000000000E+00  0.00000000000E+00  0.14999999963E+04  0.15000000000E+04  0.10566000000E+00 0.  1.
        994   -1    0    0    0    0 -0.00000000000E+00 -0.00000000000E+00  0.11368683772E-12  0.17120000000E+03  0.17120000000E+03 0.  0.
         13    1    1    2    0    0  0.65500958682E+01 -0.21699029147E+02  0.72691341084E+02  0.76143245626E+02  0.10566000000E+00 0.  1.
        994    1    1    2    0    0 -0.37855640141E+01  0.19778287699E+01  0.37199646350E+01  0.17129366725E+03  0.17120000000E+03 0.  0.
        998    1    1    2    0    0 -0.27645318541E+01  0.19721200377E+02  0.14235886906E+04  0.14237630871E+04  0.10000000000E+02 0.  1.
</event>
<event>
 5    1  0.1533416E-008  0.3840168E+03  0.7957747E-01  0.3433853E+00
         13   -1    0    0    0    0  0.00000000000E+00  0.00000000000E+00  0.14999999963E+04  0.15000000000E+04  0.10566000000E+00 0.  1.
        994   -1    0    0    0    0 -0.00000000000E+00 -0.00000000000E+00  0.11368683772E-12  0.17120000000E+03  0.17120000000E+03 0.  0.
         13    1    1    2    0    0  0.11702652693E+02 -0.16312818731E+01  0.33784397628E+02  0.35791197909E+02  0.10566000000E+00 0.  1.
        994    1    1    2    0    0  0.18765430848E+01 -0.20668678476E+01  0.21447802220E+01  0.17123619197E+03  0.17120000000E+03 0.  0.
        998    1    1    2    0    0 -0.13579195777E+02  0.36981497207E+01  0.14640708184E+04  0.14641726101E+04  0.10000000000E+02 0.  1.
</event>
<event>
 5    1  0.1533416E-008  0.3777325E+03  0.7957747E-01  0.3461092E+00
         13   -1    0    0    0    0  0.00000000000E+00  0.00000000000E+00  0.14999999963E+04  0.15000000000E+04  0.10566000000E+00 0.  1.
        994   -1    0    0    0    0 -0.00000000000E+00 -0.00000000000E+00  0.11368683772E-12  0.17120000000E+03  0.17120000000E+03 0.  0.
         13    1    1    2    0    0 -0.17161608654E+02  0.98631479551E+01  0.34663959548E+02  0.39917461778E+02  0.10566000000E+00 0.  1.
        994    1    1    2    0    0  0.15967266596E+02 -0.48495028942E+01  0.62206841237E+01  0.17212381646E+03  0.17120000000E+03 0.  0.
        998    1    1    2    0    0  0.11943420582E+01 -0.50136450608E+01  0.14591153526E+04  0.14591587218E+04  0.10000000000E+02 0.  1.
</event>
<event>
 5    1  0.1533416E-008  0.3765854E+03  0.7957747E-01  0.3466162E+00
         13   -1    0    0    0    0  0.00000000000E+00  0.00000000000E+00  0.14999999963E+04  0.15000000000E+04  0.10566000000E+00 0. -1.
        994   -1    0    0    0    0 -0.00000000000E+00 -0.00000000000E+00  0.11368683772E-12  0.17120000000E+03  0.17120000000E+03 0.  0.
         13    1    1    2    0    0  0.63668316122E+02  0.83188112704E+02  0.56771388099E+03  0.57729799793E+03  0.10566000000E+00 0. -1.
        994    1    1    2    0    0 -0.63292976313E+02 -0.83074868168E+02  0.43684799167E+02  0.20524433305E+03  0.17120000000E+03 0.  0.
        998    1    1    2    0    0 -0.37533980955E+00 -0.11324453663E+00  0.88860131612E+03  0.88865766902E+03  0.10000000000E+02 0.  0.
</event>
<event>
 5    1  0.1533416E-008  0.3704541E+03  0.7957747E-01  0.3493807E+00
         13   -1    0    0    0    0  0.00000000000E+00  0.00000000000E+00  0.14999999963E+04  0.15000000000E+04  0.10566000000E+00 0. -1.
        994   -1    0    0    0    0 -0.00000000000E+00 -0.00000000000E+00  0.11368683772E-12  0.17120000000E+03  0.17120000000E+03 0.  0.
         13    1    1    2    0    0  0.26243238886E+02  0.44922774317E+02  0.18937899939E+03  0.19639546790E+03  0.10566000000E+00 0. -1.
        994    1    1    2    0    0  0.23768825713E+02  0.58045979053E+01  0.11101360507E+02  0.17329550092E+03  0.17120000000E+03 0.  0.
        998    1    1    2    0    0 -0.50012064600E+02 -0.50727372222E+02  0.12995196364E+04  0.13015090312E+04  0.10000000000E+02 0. -1.
</event>
<event>
 5    1  0.1533416E-008  0.3844771E+03  0.7957747E-01  0.3431893E+00
         13   -1    0    0    0    0  0.00000000000E+00  0.00000000000E+00  0.14999999963E+04  0.15000000000E+04  0.10566000000E+00 0. -1.
        994   -1    0    0    0    0 -0.00000000000E+00 -0.00000000000E+00  0.11368683772E-12  0.17120000000E+03  0.17120000000E+03 0.  0.
         13    1    1    2    0    0  0.16210918640E+02  0.15978624718E+01  0.73923450245E+02  0.75696992726E+02  0.10566000000E+00 0. -1.
        994    1    1    2    0    0 -0.19996556969E+01  0.37612510356E+00  0.19035881213E+01  0.17122267298E+03  0.17120000000E+03 0.  0.
        998    1    1    2    0    0 -0.14211262943E+02 -0.19739875754E+01  0.14241729579E+04  0.14242803343E+04  0.10000000000E+02 0. -1.
</event>
<event>
 5    1  0.1533416E-008  0.3786473E+03  0.7957747E-01  0.3457070E+00
         13   -1    0    0    0    0  0.00000000000E+00  0.00000000000E+00  0.14999999963E+04  0.15000000000E+04  0.10566000000E+00 0. -1.
        994   -1    0    0    0    0 -0.00000000000E+00 -0.00000000000E+00  0.11368683772E-12  0.17120000000E+03  0.17120000000E+03 0.  0.
         13    1    1    2    0    0  0.62426399341E+02 -0.11791378612E+02  0.10379400054E+03  0.12169345774E+03  0.10566000000E+00 0. -1.
        994    1    1    2    0    0 -0.10469643250E+03 -0.48465948733E+02  0.65296376642E+02  0.21652562889E+03  0.17120000000E+03 0.  0.
        998    1    1    2    0    0  0.42270033158E+02  0.60257327345E+02  0.13309096191E+04  0.13329809134E+04  0.10000000000E+02 0. -1.
</event>
<event>
 5    1  0.1533416E-008  0.3781033E+03  0.7957747E-01  0.3459459E+00
         13   -1    0    0    0    0  0.00000000000E+00  0.00000000000E+00  0.14999999963E+04  0.15000000000E+04  0.10566000000E+00 0. -1.
        994   -1    0    0    0    0 -0.00000000000E+00 -0.00000000000E+00  0.11368683772E-12  0.17120000000E+03  0.17120000000E+03 0.  0.
         13    1    1    2    0    0 -0.35000949682E+02 -0.57673113650E+02  0.40337382052E+03  0.40897641101E+03  0.10566000000E+00 0. -1.
        994    1    1    2    0    0  0.85498493045E+01  0.52146366300E+02  0.14545274206E+02  0.17975914008E+03  0.17120000000E+03 0.  0.
        998    1    1    2    0    0  0.26451100377E+02  0.55267473505E+01  0.10820809016E+04  0.10824644489E+04  0.10000000000E+02 0. -1.
</event>
<event>
 5    1  0.1533416E-008  0.3830934E+03  0.7957747E-01  0.3437799E+00
         13   -1    0    0    0    0  0.00000000000E+00  0.00000000000E+00  0.14999999963E+04  0.15000000000E+04  0.10566000000E+00 0.  1.
        994   -1    0    0    0    0 -0.00000000000E+00 -0.00000000000E+00  0.11368683772E-12  0.17120000000E+03  0.17120000000E+03 0.  0.
         13    1    1    2    0    0 -0.21239774070E+02  0.22862458739E+02  0.13782624521E+03  0.14131491448E+03  0.10566000000E+00 0.  1.
        994    1    1    2    0    0  0.54134783855E+02 -0.35058152090E+02  0.16468359905E+02  0.18368531713E+03  0.17120000000E+03 0.  0.
        998    1    1    2    0    0 -0.32895009784E+02  0.12195693351E+02  0.13457053912E+04  0.13461997684E+04  0.10000000000E+02 0.  1.
</event>
<event>
 5    1  0.1533416E-008  0.3849907E+03  0.7957747E-01  0.3429712E+00
         13   -1    0    0    0    0  0.00000000000E+00  0.00000000000E+00  0.14999999963E+04  0.15000000000E+04  0.10566000000E+00 0.  1.
        994   -1    0    0    0    0 -0.00000000000E+00 -0.00000000000E+00  0.11368683772E-12  0.17120000000E+03  0.17120000000E+03 0.  0.
         13    1    1    2    0    0  0.49236457912E+01 -0.10530083346E+02  0.32726001711E+02  0.34729343432E+02  0.10566000000E+00 0.  1.
        994    1    1    2    0    0  0.52426877541E+01  0.68299184182E+02  0.17221659918E+02  0.18519797489E+03  0.17120000000E+03 0.  0.
        998    1    1    2    0    0 -0.10166333545E+02 -0.57769100836E+02  0.14500523346E+04  0.14512726817E+04  0.10000000000E+02 0.  1.
</event>
<event>
 5    1  0.1533416E-008  0.3801522E+03  0.7957747E-01  0.3450496E+00
         13   -1    0    0    0    0  0.00000000000E+00  0.00000000000E+00  0.14999999963E+04  0.15000000000E+04  0.10566000000E+00 0. -1.
        994   -1    0    0    0    0 -0.00000000000E+00 -0.00000000000E+00  0.11368683772E-12  0.17120000000E+03  0.17120000000E+03 0.  0.
         13    1    1    2    0    0 -0.24752928933E+01 -0.15306382750E+02  0.28430402987E+02  0.32383813948E+02  0.10566000000E+00 0. -1.
        994    1    1    2    0    0 -0.11013238701E+02  0.76131973373E+01  0.46554895133E+01  0.17178581368E+03  0.17120000000E+03 0.  0.
        998    1    1    2    0    0  0.13488531594E+02  0.76931854126E+01  0.14669141038E+04  0.14670303724E+04  0.10000000000E+02 0. -1.
</event>
<event>
 5    1  0.1533416E-008  0.3692249E+03  0.7957747E-01  0.3499461E+00
         13   -1    0    0    0    0  0.00000000000E+00  0.00000000000E+00  0.14999999963E+04  0.15000000000E+04  0.10566000000E+00 0.  1.
        994   -1    0    0    0    0 -0.00000000000E+00 -0.00000000000E+00  0.11368683772E-12  0.17120000000E+03  0.17120000000E+03 0.  0.
         13    1    1    2    0    0  0.14166379741E+02  0.41557629866E+01  0.68487200415E+01  0.16274913555E+02  0.10566000000E+00 0.  1.
        994    1    1    2    0    0 -0.12266608296E+02 -0.41164516036E+01  0.10255391722E+02  0.17199426709E+03  0.17120000000E+03 0.  0.
        998    1    1    2    0    0 -0.18997714449E+01 -0.39311383026E-01  0.14828958845E+04  0.14829308194E+04  0.10000000000E+02 0.  1.
</event>
<event>
 5    1  0.1533416E-008  0.3832808E+03  0.7957747E-01  0.3436996E+00
         13   -1    0    0    0    0  0.00000000000E+00  0.00000000000E+00  0.14999999963E+04  0.15000000000E+04  0.10566000000E+00 0.  1.
        994   -1    0    0    0    0 -0.00000000000E+00 -0.00000000000E+00  0.11368683772E-12  0.17120000000E+03  0.17120000000E+03 0.  0.
         13    1    1    2    0    0 -0.50088124817E+01 -0.10331089032E+02  0.26053462272E+02  0.28471277869E+02  0.10566000000E+00 0.  1.
        994    1    1    2    0    0  0.42317518615E+01  0.20154276868E+01  0.25587609358E+01  0.17128326518E+03  0.17120000000E+03 0.  0.
        998    1    1    2    0    0  0.77706062021E+00  0.83156613450E+01  0.14713877731E+04  0.14714454570E+04  0.10000000000E+02 0.  1.
</event>
<event>
 5    1  0.1533416E-008  0.3729792E+03  0.7957747E-01  0.3482310E+00
         13   -1    0    0    0    0  0.00000000000E+00  0.00000000000E+00  0.14999999963E+04  0.15000000000E+04  0.10566000000E+00 0.  1.
        994   -1    0    0    0    0 -0.00000000000E+00 -0.00000000000E+00  0.11368683772E-12  0.17120000000E+03  0.17120000000E+03 0.  0.
         13    1    1    2    0    0  0.37761381532E+02  0.26572768818E+02  0.18055806478E+03  0.18636861297E+03  0.10566000000E+00 0.  1.
        994    1    1    2    0    0  0.67319431769E+02 -0.67911969033E+02  0.39694103301E+02  0.20007249503E+03  0.17120000000E+03 0.  0.
        998    1    1    2    0    0 -0.10508081330E+03  0.41339200215E+02  0.12797478282E+04  0.12847588920E+04  0.10000000000E+02 0.  1.
</event>
<event>
 5    1  0.1533416E-008  0.3846554E+03  0.7957747E-01  0.3431135E+00
         13   -1    0    0    0    0  0.00000000000E+00  0.00000000000E+00  0.14999999963E+04  0.15000000000E+04  0.10566000000E+00 0.  1.
        994   -1    0    0    0    0 -0.00000000000E+00 -0.00000000000E+00  0.11368683772E-12  0.17120000000E+03  0.17120000000E+03 0.  0.
         13    1    1    2    0    0  0.48398099485E+01  0.20227747175E+02  0.10953349058E+03  0.11149072714E+03  0.10566000000E+00 0.  1.
        994    1    1    2    0    0  0.88605923569E+01 -0.27967179255E+02  0.46400666164E+01  0.17375742698E+03  0.17120000000E+03 0.  0.
        998    1    1    2    0    0 -0.13700402305E+02  0.77394320805E+01  0.13858264391E+04  0.13859518459E+04  0.10000000000E+02 0.  1.
</event>
<event>
 5    1  0.1533416E-008  0.3799207E+03  0.7957747E-01  0.3451504E+00
         13   -1    0    0    0    0  0.00000000000E+00  0.00000000000E+00  0.14999999963E+04  0.15000000000E+04  0.10566000000E+00 0. -1.
        994   -1    0    0    0    0 -0.00000000000E+00 -0.00000000000E+00  0.11368683772E-12  0.17120000000E+03  0.17120000000E+03 0.  0.
         13    1    1    2    0    0  0.15068423680E+02 -0.16646116978E+02  0.57798473644E+02  0.62006655468E+02  0.10566000000E+00 0. -1.
        994    1    1    2    0    0 -0.93648607601E+01  0.17249736797E+02  0.54624671317E+01  0.17240804095E+03  0.17120000000E+03 0.  0.
        998    1    1    2    0    0 -0.57035629195E+01 -0.60361981902E+00  0.14367390555E+04  0.14367853036E+04  0.10000000000E+02 0. -1.
</event>
<event>
 5    1  0.1533416E-008  0.3710916E+03  0.7957747E-01  0.3490889E+00
         13   -1    0    0    0    0  0.00000000000E+00  0.00000000000E+00  0.14999999963E+04  0.15000000000E+04  0.10566000000E+00 0.  1.
        994   -1    0    0    0    0 -0.00000000000E+00 -0.00000000000E+00  0.11368683772E-12  0.17120000000E+03  0.17120000000E+03 0.  0.
         13    1    1    2    0    0  0.60916210098E+02 -0.89059043945E+02  0.32116473059E+03  0.33880539149E+03  0.10566000000E+00 0.  1.
        994    1    1    2    0    0 -0.71530450386E+02  0.11502605078E+03  0.79005021383E+02  0.23216121790E+03  0.17120000000E+03 0.  0.
        998    1    1    2    0    0  0.10614240288E+02 -0.25967006838E+02  0.10998302443E+04  0.11002333906E+04  0.10000000000E+02 0.  1.
</event>
<event>
 5    1  0.1533416E-008  0.3743075E+03  0.7957747E-01  0.3476326E+00
         13   -1    0    0    0    0  0.00000000000E+00  0.00000000000E+00  0.14999999963E+04  0.15000000000E+04  0.10566000000E+00 0.  1.
        994   -1    0    0    0    0 -0.00000000000E+00 -0.00000000000E+00  0.11368683772E-12  0.17120000000E+03  0.17120000000E+03 0.  0.
         13    1    1    2    0    0  0.10008346777E+03  0.49937862721E+02  0.51000731271E+03  0.52212829921E+03  0.10566000000E+00 0.  1.
        994    1    1    2    0    0 -0.10921804755E+03 -0.53194924272E+02  0.59112316319E+02  0.21808711062E+03  0.17120000000E+03 0.  0.
        998    1    1    2    0    0  0.91345797803E+01  0.32570615507E+01  0.93088036725E+03  0.93098459017E+03  0.10000000000E+02 0.  1.
</event>
<event>
 5    1  0.1533416E-008  0.3834693E+03  0.7957747E-01  0.3436190E+00
         13   -1    0    0    0    0  0.00000000000E+00  0.00000000000E+00  0.14999999963E+04  0.15000000000E+04  0.10566000000E+00 0. -1.
        994   -1    0    0    0    0 -0.00000000000E+00 -0.00000000000E+00  0.11368683772E-12  0.17120000000E+03  0.17120000000E+03 0.  0.
         13    1    1    2    0    0 -0.54184105970E+01 -0.85545776980E+01  0.19421345684E+02  0.21902963388E+02  0.10566000000E+00 0. -1.
        994    1    1    2    0    0  0.27511361340E+02  0.12700293167E+02  0.54325129135E+01  0.17394575202E+03  0.17120000000E+03 0.  0.
        998    1    1    2    0    0 -0.22092950743E+02 -0.41457154695E+01  0.14751461377E+04  0.14753512846E+04  0.10000000000E+02 0. -1.
</event>
<event>
 5    1  0.1533416E-008  0.4248066E+03  0.7957747E-01  0.3276608E+00
         13   -1    0    0    0    0  0.00000000000E+00  0.00000000000E+00  0.14999999963E+04  0.15000000000E+04  0.10566000000E+00 0. -1.
        994   -1    0    0    0    0 -0.00000000000E+00 -0.00000000000E+00  0.11368683772E-12  0.17120000000E+03  0.17120000000E+03 0.  0.
         13    1    1    2    0    0  0.24660220858E+02 -0.19469855538E+02 -0.55931795698E+01  0.31913893357E+02  0.10566000000E+00 0. -1.
        994    1    1    2    0    0 -0.67857292657E+01 -0.33961708444E+02  0.48782717643E+02  0.18135224648E+03  0.17120000000E+03 0.  0.
        998    1    1    2    0    0 -0.17874491592E+02  0.53431563982E+02  0.14568104582E+04  0.14579338602E+04  0.10000000000E+02 0. -1.
</event>
<event>
 5    1  0.1533416E-008  0.3801932E+03  0.7957747E-01  0.3450318E+00
         13   -1    0    0    0    0  0.00000000000E+00  0.00000000000E+00  0.14999999963E+04  0.15000000000E+04  0.10566000000E+00 0. -1.
        994   -1    0    0    0    0 -0.00000000000E+00 -0.00000000000E+00  0.11368683772E-12  0.17120000000E+03  0.17120000000E+03 0.  0.
         13    1    1    2    0    0  0.38539684602E+02 -0.56527081763E+01  0.17114549589E+03  0.17552222744E+03  0.10566000000E+00 0. -1.
        994    1    1    2    0    0 -0.39570718740E+02 -0.19849763982E+02  0.10611054377E+02  0.17714934204E+03  0.17120000000E+03 0.  0.
        998    1    1    2    0    0  0.10310341377E+01  0.25502472158E+02  0.13182434460E+04  0.13185284305E+04  0.10000000000E+02 0. -1.
</event>
<event>
 5    1  0.1533416E-008  0.3827485E+03  0.7957747E-01  0.3439277E+00
         13   -1    0    0    0    0  0.00000000000E+00  0.00000000000E+00  0.14999999963E+04  0.15000000000E+04  0.10566000000E+00 0. -1.
        994   -1    0    0    0    0 -0.00000000000E+00 -0.00000000000E+00  0.11368683772E-12  0.17120000000E+03  0.17120000000E+03 0.  0.
         13    1    1    2    0    0  0.38047461510E+02 -0.58917558707E+01  0.22418189439E+03  0.22746396429E+03  0.10566000000E+00 0. -1.
        994    1    1    2    0    0 -0.41204823618E+02  0.72374825564E+01  0.85720193913E+01  0.17644585050E+03  0.17120000000E+03 0.  0.
        998    1    1    2    0    0  0.31573621083E+01 -0.13457266857E+01  0.12672460825E+04  0.12672901852E+04  0.10000000000E+02 0.  0.
</event>
<event>
 5    1  0.1533416E-008  0.3829784E+03  0.7957747E-01  0.3438292E+00
         13   -1    0    0    0    0  0.00000000000E+00  0.00000000000E+00  0.14999999963E+04  0.15000000000E+04  0.10566000000E+00 0.  1.
        994   -1    0    0    0    0 -0.00000000000E+00 -0.00000000000E+00  0.11368683772E-12  0.17120000000E+03  0.17120000000E+03 0.  0.
         13    1    1    2    0    0 -0.18018629039E+02 -0.75847130367E+00  0.67594264673E+02  0.69958859709E+02  0.10566000000E+00 0.  1.
        994    1    1    2    0    0 -0.84709141419E+01  0.92750900806E+01  0.31596693386E+01  0.17168927512E+03  0.17120000000E+03 0.  0.
        998    1    1    2    0    0  0.26489543181E+02 -0.85166187770E+01  0.14292460623E+04  0.14295518652E+04  0.10000000000E+02 0.  1.
</event>
<event>
 5    1  0.1533416E-008  0.3793709E+03  0.7957747E-01  0.3453902E+00
         13   -1    0    0    0    0  0.00000000000E+00  0.00000000000E+00  0.14999999963E+04  0.15000000000E+04  0.10566000000E+00 0. -1.
        994   -1    0    0    0    0 -0.00000000000E+00 -0.00000000000E+00  0.11368683772E-12  0.17120000000E+03  0.17120000000E+03 0.  0.
         13    1    1    2    0    0  0.38803681093E+02 -0.23609031239E+02  0.24486160554E+03  0.24903881034E+03  0.10566000000E+00 0. -1.
        994    1    1    2    0    0 -0.13820186695E+02  0.12722698208E+02  0.56339690261E+01  0.17231960485E+03  0.17120000000E+03 0.  0.
        998    1    1    2    0    0 -0.24983494398E+02  0.10886333031E+02  0.12495044217E+04  0.12498415848E+04  0.10000000000E+02 0. -1.
</event>
<event>
 5    1  0.1533416E-008  0.3856945E+03  0.7957747E-01  0.3426732E+00
         13   -1    0    0    0    0  0.00000000000E+00  0.00000000000E+00  0.14999999963E+04  0.15000000000E+04  0.10566000000E+00 0.  1.
        994   -1    0    0    0    0 -0.00000000000E+00 -0.00000000000E+00  0.11368683772E-12  0.17120000000E+03  0.17120000000E+03 0.  0.
         13    1    1    2    0    0 -0.42270164460E+01  0.12592100451E+02  0.65336241498E+02  0.66672815142E+02  0.10566000000E+00 0.  1.
        994    1    1    2    0    0 -0.19917388475E+01 -0.18478801966E+02  0.24199835933E+01  0.17222290633E+03  0.17120000000E+03 0.  0.
        998    1    1    2    0    0  0.62187552936E+01  0.58867015144E+01  0.14322437712E+04  0.14323042785E+04  0.10000000000E+02 0.  1.
</event>
<event>
 5    1  0.1533416E-008  0.2817292E+03  0.7957747E-01  0.4035758E+00
         13   -1    0    0    0    0  0.00000000000E+00  0.00000000000E+00  0.14999999963E+04  0.15000000000E+04  0.10566000000E+00 0. -1.
        994   -1    0    0    0    0 -0.00000000000E+00 -0.00000000000E+00  0.11368683772E-12  0.17120000000E+03  0.17120000000E+03 0.  0.
         13    1    1    2    0    0  0.13281621445E+03 -0.89006720097E+02  0.63045715575E+03  0.65041415994E+03  0.10566000000E+00 0. -1.
        994    1    1    2    0    0 -0.75659444429E+02  0.59213497285E+02  0.55329718154E+02  0.20396423094E+03  0.17120000000E+03 0.  0.
        998    1    1    2    0    0 -0.57156770025E+02  0.29793222812E+02  0.81421312237E+03  0.81682160912E+03  0.10000000000E+02 0. -1.
</event>
<event>
 5    1  0.1533416E-008  0.3855077E+03  0.7957747E-01  0.3427522E+00
         13   -1    0    0    0    0  0.00000000000E+00  0.00000000000E+00  0.14999999963E+04  0.15000000000E+04  0.10566000000E+00 0. -1.
        994   -1    0    0    0    0 -0.00000000000E+00 -0.00000000000E+00  0.11368683772E-12  0.17120000000E+03  0.17120000000E+03 0.  0.
         13    1    1    2    0    0  0.69262475901E+01  0.76952994452E+01  0.41158401547E+02  0.42440731864E+02  0.10566000000E+00 0. -1.
        994    1    1    2    0    0  0.87638601482E+00  0.28566293793E+01  0.14075745704E+01  0.17123185933E+03  0.17120000000E+03 0.  0.
        998    1    1    2    0    0 -0.78026336049E+01 -0.10551928825E+02  0.14574340202E+04  0.14575274088E+04  0.10000000000E+02 0. -1.
</event>
<event>
 5    1  0.1533416E-008  0.3827613E+03  0.7957747E-01  0.3439223E+00
         13   -1    0    0    0    0  0.00000000000E+00  0.00000000000E+00  0.14999999963E+04  0.15000000000E+04  0.10566000000E+00 0.  1.
        994   -1    0    0    0    0 -0.00000000000E+00 -0.00000000000E+00  0.11368683772E-12  0.17120000000E+03  0.17120000000E+03 0.  0.
         13    1    1    2    0    0 -0.15926426112E+02 -0.55901229618E+01  0.49286835012E+02  0.52097061270E+02  0.10566000000E+00 0.  1.
        994    1    1    2    0    0  0.19231254545E+02  0.26092768920E+01  0.39944410664E+01  0.17234281255E+03  0.17120000000E+03 0.  0.
        998    1    1    2    0    0 -0.33048284326E+01  0.29808460698E+01  0.14467187202E+04  0.14467601262E+04  0.10000000000E+02 0.  1.
</event>
<event>
 5    1  0.1533416E-008  0.3736172E+03  0.7957747E-01  0.3479430E+00
         13   -1    0    0    0    0  0.00000000000E+00  0.00000000000E+00  0.14999999963E+04  0.15000000000E+04  0.10566000000E+00 0. -1.
        994   -1    0    0    0    0 -0.00000000000E+00 -0.00000000000E+00  0.11368683772E-12  0.17120000000E+03  0.17120000000E+03 0.  0.
         13    1    1    2    0    0  0.21542779081E+02 -0.92507205433E+01  0.35596326033E+02  0.42623664228E+02  0.10566000000E+00 0. -1.
        994    1    1    2    0    0 -0.20256823773E+01 -0.17046037188E+01  0.74144762547E+01  0.17138093103E+03  0.17120000000E+03 0.  0.
        998    1    1    2    0    0 -0.19517096703E+02  0.10955324262E+02  0.14569891940E+04  0.14571954047E+04  0.10000000000E+02 0. -1.
</event>
<event>
 5    1  0.1533416E-008  0.3783908E+03  0.7957747E-01  0.3458195E+00
         13   -1    0    0    0    0  0.00000000000E+00  0.00000000000E+00  0.14999999963E+04  0.15000000000E+04  0.10566000000E+00 0.  1.
        994   -1    0    0    0    0 -0.00000000000E+00 -0.00000000000E+00  0.11368683772E-12  0.17120000000E+03  0.17120000000E+03 0.  0.
         13    1    1    2    0    0  0.24829703904E+02  0.11248715137E+03  0.28259114674E+03  0.30516821722E+03  0.10566000000E+00 0.  1.
        994    1    1    2    0    0 -0.70304492388E+02 -0.13405055347E+03  0.10337164615E+03  0.25081349598E+03  0.17120000000E+03 0.  0.
        998    1    1    2    0    0  0.45474788484E+02  0.21563402094E+02  0.11140372034E+04  0.11152182868E+04  0.10000000000E+02 0.  1.
</event>
<event>
 5    1  0.1533416E-008  0.3828073E+03  0.7957747E-01  0.3439025E+00
         13   -1    0    0    0    0  0.00000000000E+00  0.00000000000E+00  0.14999999963E+04  0.15000000000E+04  0.10566000000E+00 0. -1.
        994   -1    0    0    0    0 -0.00000000000E+00 -0.00000000000E+00  0.11368683772E-12  0.17120000000E+03  0.17120000000E+03 0.  0.
         13    1    1    2    0    0  0.20889088500E+02  0.12912776840E+02  0.10683963126E+03  0.10962578071E+03  0.10566000000E+00 0. -1.
        994    1    1    2    0    0 -0.15653235744E+02 -0.11904397717E+02  0.40046892244E+01  0.17237231799E+03  0.17120000000E+03 0.  0.
        998    1    1    2    0    0 -0.52358527564E+01 -0.10083791225E+01  0.13891556758E+04  0.13892019013E+04  0.10000000000E+02 0. -1.
</event>
<event>
 5    1  0.1533416E-008  0.3821384E+03  0.7957747E-01  0.3441900E+00
         13   -1    0    0    0    0  0.00000000000E+00  0.00000000000E+00  0.14999999963E+04  0.15000000000E+04  0.10566000000E+00 0. -1.
        994   -1    0    0    0    0 -0.00000000000E+00 -0.00000000000E+00  0.11368683772E-12  0.17120000000E+03  0.17120000000E+03 0.  0.
         13    1    1    2    0    0  0.76681113201E+01 -0.26304555250E+02  0.14127409315E+03  0.14390660206E+03  0.10566000000E+00 0. -1.
        994    1    1    2    0    0  0.73095567079E+01 -0.21132204112E+01  0.32497841799E+01  0.17139981452E+03  0.17120000000E+03 0.  0.
        998    1    1    2    0    0 -0.14977668028E+02  0.28417775661E+02  0.13554761189E+04  0.13558935834E+04  0.10000000000E+02 0. -1.
</event>
<event>
 5    1  0.1533416E-008  0.3691986E+03  0.7957747E-01  0.3499582E+00
         13   -1    0    0    0    0  0.00000000000E+00  0.00000000000E+00  0.14999999963E+04  0.15000000000E+04  0.10566000000E+00 0. -1.
        994   -1    0    0    0    0 -0.00000000000E+00 -0.00000000000E+00  0.11368683772E-12  0.17120000000E+03  0.17120000000E+03 0.  0.
         13    1    1    2    0    0  0.29548225672E+02  0.16012690505E+02  0.52749988592E+02  0.62546593497E+02  0.10566000000E+00 0. -1.
        994    1    1    2    0    0 -0.32650591220E+02 -0.11543694617E+02  0.13858271995E+02  0.17521646525E+03  0.17120000000E+03 0.  0.
        998    1    1    2    0    0  0.31023655476E+01 -0.44689958871E+01  0.14333917357E+04  0.14334369413E+04  0.10000000000E+02 0. -1.
</event>
<event>
 5    1  0.1533416E-008  0.3832748E+03  0.7957747E-01  0.3437022E+00
         13   -1    0    0    0    0  0.00000000000E+00  0.00000000000E+00  0.14999999963E+04  0.15000000000E+04  0.10566000000E+00 0. -1.
        994   -1    0    0    0    0 -0.00000000000E+00 -0.00000000000E+00  0.11368683772E-12  0.17120000000E+03  0.17120000000E+03 0.  0.
         13    1    1    2    0    0 -0.90522333055E+01 -0.59040107908E+01  0.22874226225E+02  0.25299044659E+02  0.10566000000E+00 0. -1.
        994    1    1    2    0    0 -0.73302008233E+01  0.18093287732E+02  0.37504783955E+01  0.17235023932E+03  0.17120000000E+03 0.  0.
        998    1    1    2    0    0  0.16382434129E+02 -0.12189276941E+02  0.14733752917E+04  0.14735507160E+04  0.10000000000E+02 0. -1.
</event>
<event>
 5    1  0.1533416E-008  0.3712726E+03  0.7957747E-01  0.3490062E+00
         13   -1    0    0    0    0  0.00000000000E+00  0.00000000000E+00  0.14999999963E+04  0.15000000000E+04  0.10566000000E+00 0. -1.
        994   -1    0    0    0    0 -0.00000000000E+00 -0.00000000000E+00  0.11368683772E-12  0.17120000000E+03  0.17120000000E+03 0.  0.
         13    1    1    2    0    0 -0.70843226767E+01  0.76380532039E+01 -0.84769194545E+00  0.10452618342E+02  0.10566000000E+00 0. -1.
        994    1    1    2    0    0  0.13512360487E+02 -0.14886692353E+02  0.13033965230E+02  0.17286850999E+03  0.17120000000E+03 0.  0.
        998    1    1    2    0    0 -0.64280378103E+01  0.72486391487E+01  0.14878137230E+04  0.14878788717E+04  0.10000000000E+02 0. -1.
</event>
<event>
 5    1  0.1533416E-008  0.3825664E+03  0.7957747E-01  0.3440059E+00
         13   -1    0    0    0    0  0.00000000000E+00  0.00000000000E+00  0.14999999963E+04  0.15000000000E+04  0.10566000000E+00 0.  1.
        994   -1    0    0    0    0 -0.00000000000E+00 -0.00000000000E+00  0.11368683772E-12  0.17120000000E+03  0.17120000000E+03 0.  0.
         13    1    1    2    0    0 -0.14359145058E+02 -0.18658767200E+01  0.38408305864E+02  0.41047237010E+02  0.10566000000E+00 0.  1.
        994    1    1    2    0    0 -0.59952787942E+01 -0.11659381982E+02  0.34131718202E+01  0.17173518655E+03  0.17120000000E+03 0.  0.
        998    1    1    2    0    0  0.20354423852E+02  0.13525258702E+02  0.14581785186E+04  0.14584175764E+04  0.10000000000E+02 0.  1.
</event>
<event>
 5    1  0.1533416E-008  0.3791208E+03  0.7957747E-01  0.3454996E+00
         13   -1    0    0    0    0  0.00000000000E+00  0.00000000000E+00  0.14999999963E+04  0.15000000000E+04  0.10566000000E+00 0. -1.
        994   -1    0    0    0    0 -0.00000000000E+00 -0.00000000000E+00  0.11368683772E-12  0.17120000000E+03  0.17120000000E+03 0.  0.
         13    1    1    2    0    0  0.38696340498E+02  0.40056819112E+01  0.15344585640E+03  0.15830064519E+03  0.10566000000E+00 0. -1.
        994    1    1    2    0    0 -0.31175053568E+02 -0.33736533787E+02  0.11684568915E+02  0.17764010478E+03  0.17120000000E+03 0.  0.
        998    1    1    2    0    0 -0.75212869302E+01  0.29730851876E+02  0.13348695710E+04  0.13352592500E+04  0.10000000000E+02 0. -1.
</event>
<event>
 5    1  0.1533416E-008  0.3743000E+03  0.7957747E-01  0.3476360E+00
         13   -1    0    0    0    0  0.00000000000E+00  0.00000000000E+00  0.14999999963E+04  0.15000000000E+04  0.10566000000E+00 0. -1.
        994   -1    0    0    0    0 -0.00000000000E+00 -0.00000000000E+00  0.11368683772E-12  0.17120000000E+03  0.17120000000E+03 0.  0.
         13    1    1    2    0    0 -0.19181427195E+02 -0.51778385903E+02  0.19319543034E+03  0.20093136606E+03  0.10566000000E+00 0. -1.
        994    1    1    2    0    0  0.17798703200E+02  0.47096552516E+02  0.15725173162E+02  0.17914128549E+03  0.17120000000E+03 0.  0.
        998    1    1    2    0    0  0.13827239948E+01  0.46818333867E+01  0.12910793928E+04  0.12911273485E+04  0.10000000000E+02 0.  1.
</event>
<event>
 5    1  0.1533416E-008  0.3835531E+03  0.7957747E-01  0.3435832E+00
         13   -1    0    0    0    0  0.00000000000E+00  0.00000000000E+00  0.14999999963E+04  0.15000000000E+04  0.10566000000E+00 0. -1.
        994   -1    0    0    0    0 -0.00000000000E+00 -0.00000000000E+00  0.11368683772E-12  0.17120000000E+03  0.17120000000E+03 0.  0.
         13    1    1    2    0    0  0.74070281131E+01 -0.89271242975E+01  0.27637745339E+02  0.29973550760E+02  0.10566000000E+00 0. -1.
        994    1    1    2    0    0 -0.28433183349E+01  0.11101339401E+02  0.27842184106E+01  0.17160569940E+03  0.17120000000E+03 0.  0.
        998    1    1    2    0    0 -0.45637097782E+01 -0.21742151033E+01  0.14695780325E+04  0.14696207498E+04  0.10000000000E+02 0. -1.
</event>
<event>
 5    1  0.1533416E-008  0.3805504E+03  0.7957747E-01  0.3448766E+00
         13   -1    0    0    0    0  0.00000000000E+00  0.00000000000E+00  0.14999999963E+04  0.15000000000E+04  0.10566000000E+00 0. -1.
        994   -1    0    0    0    0 -0.00000000000E+00 -0.00000000000E+00  0.11368683772E-12  0.17120000000E+03  0.17120000000E+03 0.  0.
         13    1    1    2    0    0 -0.25998656593E+02  0.26556957194E+01  0.83351970940E+02  0.87352991294E+02  0.10566000000E+00 0. -1.
        994    1    1    2    0    0  0.26353075093E+02  0.56045619822E+01  0.62815581211E+01  0.17342085703E+03  0.17120000000E+03 0.  0.
        998    1    1    2    0    0 -0.35441849959E+00 -0.82602577016E+01  0.14103664672E+04  0.14104261517E+04  0.10000000000E+02 0. -1.
</event>
<event>
 5    1  0.1533416E-008  0.3745484E+03  0.7957747E-01  0.3475245E+00
         13   -1    0    0    0    0  0.00000000000E+00  0.00000000000E+00  0.14999999963E+04  0.15000000000E+04  0.10566000000E+00 0.  1.
        994   -1    0    0    0    0 -0.00000000000E+00 -0.00000000000E+00  0.11368683772E-12  0.17120000000E+03  0.17120000000E+03 0.  0.
         13    1    1    2    0    0 -0.12645208215E+02  0.70936332201E+01  0.11366263030E+02  0.18423463908E+02  0.10566000000E+00 0.  1.
        994    1    1    2    0    0  0.25713341773E+02 -0.31585775262E+02  0.12579163602E+02  0.17642707417E+03  0.17120000000E+03 0.  0.
        998    1    1    2    0    0 -0.13068133558E+02  0.24492142042E+02  0.14760545696E+04  0.14763494619E+04  0.10000000000E+02 0.  1.
</event>
<event>
 5    1  0.1533416E-008  0.3808044E+03  0.7957747E-01  0.3447664E+00
         13   -1    0    0    0    0  0.00000000000E+00  0.00000000000E+00  0.14999999963E+04  0.15000000000E+04  0.10566000000E+00 0.  1.
        994   -1    0    0    0    0 -0.00000000000E+00 -0.00000000000E+00  0.11368683772E-12  0.17120000000E+03  0.17120000000E+03 0.  0.
         13    1    1    2    0    0 -0.28410061473E+02  0.39860705420E+02  0.25293232412E+03  0.25762526891E+03  0.10566000000E+00 0.  1.
        994    1    1    2    0    0  0.40406005949E+02 -0.39743432378E+02  0.14512407750E+02  0.18092052319E+03  0.17120000000E+03 0.  0.
        998    1    1    2    0    0 -0.11995944477E+02 -0.11727304175E+00  0.12325552644E+04  0.12326542079E+04  0.10000000000E+02 0.  1.
</event>
<event>
 5    1  0.1533416E-008  0.3798362E+03  0.7957747E-01  0.3451872E+00
         13   -1    0    0    0    0  0.00000000000E+00  0.00000000000E+00  0.14999999963E+04  0.15000000000E+04  0.10566000000E+00 0. -1.
        994   -1    0    0    0    0 -0.00000000000E+00 -0.00000000000E+00  0.11368683772E-12  0.17120000000E+03  0.17120000000E+03 0.  0.
         13    1    1    2    0    0  0.18647462765E+02  0.55977610715E+02  0.33768913719E+03  0.34280487936E+03  0.10566000000E+00 0. -1.
        994    1    1    2    0    0 -0.34681808939E+00 -0.57532051410E+02  0.15367683983E+02  0.18126131119E+03  0.17120000000E+03 0.  0.
        998    1    1    2    0    0 -0.18300644675E+02  0.15544406953E+01  0.11469431751E+04  0.11471338095E+04  0.10000000000E+02 0. -1.
</event>
<event>
 5    1  0.1533416E-008  0.3842387E+03  0.7957747E-01  0.3432908E+00
         13   -1    0    0    0    0  0.00000000000E+00  0.00000000000E+00  0.14999999963E+04  0.15000000000E+04  0.10566000000E+00 0. -1.
        994   -1    0    0    0    0 -0.00000000000E+00 -0.00000000000E+00  0.11368683772E-12  0.17120000000E+03  0.17120000000E+03 0.  0.
         13    1    1    2    0    0  0.65059883140E+01  0.79315946742E+01  0.25715839990E+02  0.27686705627E+02  0.10566000000E+00 0. -1.
        994    1    1    2    0    0 -0.71499276515E+01 -0.22752725217E+01  0.21942253978E+01  0.17137839116E+03  0.17120000000E+03 0.  0.
        998    1    1    2    0    0  0.64393933751E+00 -0.56563221526E+01  0.14720899309E+04  0.14721349032E+04  0.10000000000E+02 0. -1.
</event>
<event>
 5    1  0.1533416E-008  0.3804088E+03  0.7957747E-01  0.3449380E+00
         13   -1    0    0    0    0  0.00000000000E+00  0.00000000000E+00  0.14999999963E+04  0.15000000000E+04  0.10566000000E+00 0. -1.
        994   -1    0    0    0    0 -0.00000000000E+00 -0.00000000000E+00  0.11368683772E-12  0.17120000000E+03  0.17120000000E+03 0.  0.
         13    1    1    2    0    0 -0.12967218710E+02  0.51300078297E+01  0.23348643296E+02  0.27196250646E+02  0.10566000000E+00 0. -1.
        994    1    1    2    0    0  0.60046670643E+01 -0.36432272324E+01  0.40916222414E+01  0.17139285430E+03  0.17120000000E+03 0.  0.
        998    1    1    2    0    0  0.69625516458E+01 -0.14867805973E+01  0.14725597307E+04  0.14726108951E+04  0.10000000000E+02 0. -1.
</event>
<event>
 5    1  0.1533416E-008  0.3820349E+03  0.7957747E-01  0.3442346E+00
         13   -1    0    0    0    0  0.00000000000E+00  0.00000000000E+00  0.14999999963E+04  0.15000000000E+04  0.10566000000E+00 0. -1.
        994   -1    0    0    0    0 -0.00000000000E+00 -0.00000000000E+00  0.11368683772E-12  0.17120000000E+03  0.17120000000E+03 0.  0.
         13    1    1    2    0    0  0.85958016545E+01 -0.17382130730E+02  0.58026578260E+02  0.61181052814E+02  0.10566000000E+00 0. -1.
        994    1    1    2    0    0 -0.43132960069E+01  0.17823450691E+02  0.42268934515E+01  0.17223120085E+03  0.17120000000E+03 0.  0.
        998    1    1    2    0    0 -0.42825056475E+01 -0.44131996128E+00  0.14377465246E+04  0.14377877463E+04  0.10000000000E+02 0. -1.
</event>
<event>
 5    1  0.1533416E-008  0.3828733E+03  0.7957747E-01  0.3438742E+00
         13   -1    0    0    0    0  0.00000000000E+00  0.00000000000E+00  0.14999999963E+04  0.15000000000E+04  0.10566000000E+00 0. -1.
        994   -1    0    0    0    0 -0.00000000000E+00 -0.00000000000E+00  0.11368683772E-12  0.17120000000E+03  0.17120000000E+03 0.  0.
         13    1    1    2    0    0  0.37122771665E+02 -0.20381729667E+02  0.22664462616E+03  0.23056737152E+03  0.10566000000E+00 0. -1.
        994    1    1    2    0    0 -0.66756467145E+02  0.18533028910E+02  0.18750384775E+02  0.18563651579E+03  0.17120000000E+03 0.  0.
        998    1    1    2    0    0  0.29633695480E+02  0.18487007571E+01  0.12546049853E+04  0.12549961127E+04  0.10000000000E+02 0. -1.
</event>
<event>
 5    1  0.1533416E-008  0.3749809E+03  0.7957747E-01  0.3473308E+00
         13   -1    0    0    0    0  0.00000000000E+00  0.00000000000E+00  0.14999999963E+04  0.15000000000E+04  0.10566000000E+00 0.  1.
        994   -1    0    0    0    0 -0.00000000000E+00 -0.00000000000E+00  0.11368683772E-12  0.17120000000E+03  0.17120000000E+03 0.  0.
         13    1    1    2    0    0 -0.36341415393E+02 -0.18376866406E+02  0.11107369782E+03  0.11830378355E+03  0.10566000000E+00 0.  1.
        994    1    1    2    0    0  0.40076731026E+02  0.20992688391E+02  0.13678560649E+02  0.17760456176E+03  0.17120000000E+03 0.  0.
        998    1    1    2    0    0 -0.37353156328E+01 -0.26158219852E+01  0.13752477378E+04  0.13752916547E+04  0.10000000000E+02 0.  1.
</event>
<event>
 5    1  0.1533416E-008  0.3836570E+03  0.7957747E-01  0.3435388E+00
         13   -1    0    0    0    0  0.00000000000E+00  0.00000000000E+00  0.14999999963E+04  0.15000000000E+04  0.10566000000E+00 0.  1.
        994   -1    0    0    0    0 -0.00000000000E+00 -0.00000000000E+00  0.11368683772E-12  0.17120000000E+03  0.17120000000E+03 0.  0.
         13    1    1    2    0    0 -0.11896984959E+02  0.11813867339E+02  0.63904662345E+02  0.66067561981E+02  0.10566000000E+00 0.  1.
        994    1    1    2    0    0  0.20419302940E+01  0.49028876740E+00  0.23129283018E+01  0.17122850084E+03  0.17120000000E+03 0.  0.
        998    1    1    2    0    0  0.98550546648E+01 -0.12304156107E+02  0.14337824056E+04  0.14339039372E+04  0.10000000000E+02 0.  1.
</event>
<event>
 5    1  0.1533416E-008  0.3823714E+03  0.7957747E-01  0.3440897E+00
         13   -1    0    0    0    0  0.00000000000E+00  0.00000000000E+00  0.14999999963E+04  0.15000000000E+04  0.10566000000E+00 0. -1.
        994   -1    0    0    0    0 -0.00000000000E+00 -0.00000000000E+00  0.11368683772E-12  0.17120000000E+03  0.17120000000E+03 0.  0.
         13    1    1    2    0    0 -0.24664124462E+02 -0.12417512105E+02  0.11454051196E+03  0.11782212732E+03  0.10566000000E+00 0. -1.
        994    1    1    2    0    0  0.43731148893E+02 -0.67653931520E+01  0.94633178915E+01  0.17707958187E+03  0.17120000000E+03 0.  0.
        998    1    1    2    0    0 -0.19067024431E+02  0.19182905257E+02  0.13759961664E+04  0.13762982908E+04  0.10000000000E+02 0. -1.
</event>
<event>
 5    1  0.1533416E-008  0.3827479E+03  0.7957747E-01  0.3439280E+00
         13   -1    0    0    0    0  0.00000000000E+00  0.00000000000E+00  0.14999999963E+04  0.15000000000E+04  0.10566000000E+00 0.  1.
        994   -1    0    0    0    0 -0.00000000000E+00 -0.00000000000E+00  0.11368683772E-12  0.17120000000E+03  0.17120000000E+03 0.  0.
         13    1    1    2    0    0  0.10994254350E+02 -0.20062989147E+02  0.95923314010E+02  0.98613845362E+02  0.10566000000E+00 0.  1.
        994    1    1    2    0    0 -0.10159358193E+02  0.73845324761E+01  0.32751662169E+01  0.17169132358E+03  0.17120000000E+03 0.  0.
        998    1    1    2    0    0 -0.83489615769E+00  0.12678456671E+02  0.14008015161E+04  0.14008948311E+04  0.10000000000E+02 0.  1.
</event>
<event>
 5    1  0.1533416E-008  0.3766204E+03  0.7957747E-01  0.3466007E+00
         13   -1    0    0    0    0  0.00000000000E+00  0.00000000000E+00  0.14999999963E+04  0.15000000000E+04  0.10566000000E+00 0.  1.
        994   -1    0    0    0    0 -0.00000000000E+00 -0.00000000000E+00  0.11368683772E-12  0.17120000000E+03  0.17120000000E+03 0.  0.
         13    1    1    2    0    0  0.11884658436E+03 -0.18093650338E+02  0.58823944996E+03  0.60039782848E+03  0.10566000000E+00 0.  1.
        994    1    1    2    0    0 -0.13254142577E+03  0.28064145816E+02  0.70659605476E+02  0.22947123060E+03  0.17120000000E+03 0.  0.
        998    1    1    2    0    0  0.13694841406E+02 -0.99704954780E+01  0.84110094085E+03  0.84133094092E+03  0.10000000000E+02 0.  1.
</event>
<event>
 5    1  0.1533416E-008  0.3748860E+03  0.7957747E-01  0.3473733E+00
         13   -1    0    0    0    0  0.00000000000E+00  0.00000000000E+00  0.14999999963E+04  0.15000000000E+04  0.10566000000E+00 0.  1.
        994   -1    0    0    0    0 -0.00000000000E+00 -0.00000000000E+00  0.11368683772E-12  0.17120000000E+03  0.17120000000E+03 0.  0.
         13    1    1    2    0    0 -0.84813646223E+01 -0.24270170636E+02  0.46124639188E+02  0.52805948840E+02  0.10566000000E+00 0.  1.
        994    1    1    2    0    0 -0.12746079198E+02  0.24556847478E+02  0.93447752464E+01  0.17367287099E+03  0.17120000000E+03 0.  0.
        998    1    1    2    0    0  0.21227443821E+02 -0.28667684193E+00  0.14445305818E+04  0.14447211802E+04  0.10000000000E+02 0.  1.
</event>
<event>
 5    1  0.1533416E-008  0.3829103E+03  0.7957747E-01  0.3438584E+00
         13   -1    0    0    0    0  0.00000000000E+00  0.00000000000E+00  0.14999999963E+04  0.15000000000E+04  0.10566000000E+00 0. -1.
        994   -1    0    0    0    0 -0.00000000000E+00 -0.00000000000E+00  0.11368683772E-12  0.17120000000E+03  0.17120000000E+03 0.  0.
         13    1    1    2    0    0  0.10387035885E+02 -0.32125734735E+01  0.20656356078E+02  0.23343250701E+02  0.10566000000E+00 0. -1.
        994    1    1    2    0    0 -0.14995862352E+02  0.21930373001E+01  0.34320809867E+01  0.17190376517E+03  0.17120000000E+03 0.  0.
        998    1    1    2    0    0  0.46088264672E+01  0.10195361735E+01  0.14759115592E+04  0.14759529841E+04  0.10000000000E+02 0. -1.
</event>
<event>
 5    1  0.1533416E-008  0.3764179E+03  0.7957747E-01  0.3466906E+00
         13   -1    0    0    0    0  0.00000000000E+00  0.00000000000E+00  0.14999999963E+04  0.15000000000E+04  0.10566000000E+00 0. -1.
        994   -1    0    0    0    0 -0.00000000000E+00 -0.00000000000E+00  0.11368683772E-12  0.17120000000E+03  0.17120000000E+03 0.  0.
         13    1    1    2    0    0  0.21054952878E+02 -0.39980029144E+01  0.38686058903E+02  0.44225754776E+02  0.10566000000E+00 0. -1.
        994    1    1    2    0    0  0.71773535265E+01 -0.49148101368E+01  0.62084427396E+01  0.17153324612E+03  0.17120000000E+03 0.  0.
        998    1    1    2    0    0 -0.28232306404E+02  0.89128130512E+01  0.14551054946E+04  0.14554409991E+04  0.10000000000E+02 0. -1.
</event>
<event>
 5    1  0.3194780E-008  0.3864274E+03  0.7957747E-01  0.3423641E+00
         13   -1    0    0    0    0  0.00000000000E+00  0.00000000000E+00  0.14999999963E+04  0.15000000000E+04  0.10566000000E+00 0.  1.
        994   -1    0    0    0    0 -0.00000000000E+00 -0.00000000000E+00  0.11368683772E-12  0.17120000000E+03  0.17120000000E+03 0.  0.
         13    1    1    2    0    0  0.10212229181E+02 -0.12495970464E+01  0.58853109822E+02  0.59745717983E+02  0.10566000000E+00 0.  1.
        994    1    1    2    0    0 -0.62522437192E+01 -0.45243981932E+00  0.10517282585E+01  0.17131795407E+03  0.17120000000E+03 0.  0.
        998    1    1    2    0    0 -0.39599854617E+01  0.17020368657E+01  0.14400951582E+04  0.14401363279E+04  0.10000000000E+02 0.  1.
</event>
<event>
 5    1  0.1533416E-008  0.3780667E+03  0.7957747E-01  0.3459620E+00
         13   -1    0    0    0    0  0.00000000000E+00  0.00000000000E+00  0.14999999963E+04  0.15000000000E+04  0.10566000000E+00 0. -1.
        994   -1    0    0    0    0 -0.00000000000E+00 -0.00000000000E+00  0.11368683772E-12  0.17120000000E+03  0.17120000000E+03 0.  0.
         13    1    1    2    0    0 -0.16162555741E+02  0.19059032593E+02  0.61019954619E+02  0.65938766725E+02  0.10566000000E+00 0. -1.
        994    1    1    2    0    0  0.84808774453E+01 -0.30274480249E+01  0.53851217110E+01  0.17152122393E+03  0.17120000000E+03 0.  0.
        998    1    1    2    0    0  0.76816782954E+01 -0.16031584568E+02  0.14335949199E+04  0.14337400093E+04  0.10000000000E+02 0. -1.
</event>
<event>
 5    1  0.1533416E-008  0.3848979E+03  0.7957747E-01  0.3430105E+00
         13   -1    0    0    0    0  0.00000000000E+00  0.00000000000E+00  0.14999999963E+04  0.15000000000E+04  0.10566000000E+00 0. -1.
        994   -1    0    0    0    0 -0.00000000000E+00 -0.00000000000E+00  0.11368683772E-12  0.17120000000E+03  0.17120000000E+03 0.  0.
         13    1    1    2    0    0  0.16643454352E+01  0.12675421331E+02  0.49033827340E+02  0.50673106667E+02  0.10566000000E+00 0. -1.
        994    1    1    2    0    0 -0.20300370983E+00 -0.65949155893E+01  0.18240783658E+01  0.17133680686E+03  0.17120000000E+03 0.  0.
        998    1    1    2    0    0 -0.14613417254E+01 -0.60805057419E+01  0.14491420906E+04  0.14491900865E+04  0.10000000000E+02 0. -1.
</event>
<event>
 5    1  0.1533416E-008  0.3850267E+03  0.7957747E-01  0.3429559E+00
         13   -1    0    0    0    0  0.00000000000E+00  0.00000000000E+00  0.14999999963E+04  0.15000000000E+04  0.10566000000E+00 0. -1.
        994   -1    0    0    0    0 -0.00000000000E+00 -0.00000000000E+00  0.11368683772E-12  0.17120000000E+03  0.17120000000E+03 0.  0.
         13    1    1    2    0    0  0.11493414363E+01 -0.11776086468E+02  0.43160607766E+02  0.44753172234E+02  0.10566000000E+00 0. -1.
        994    1    1    2    0    0 -0.53684452205E+01  0.76747634697E+01  0.19054177339E+01  0.17146659388E+03  0.17120000000E+03 0.  0.
        998    1    1    2    0    0  0.42191037842E+01  0.41013229982E+01  0.14549339708E+04  0.14549802339E+04  0.10000000000E+02 0. -1.
</event>
<event>
 5    1  0.1533416E-008  0.3816974E+03  0.7957747E-01  0.3443801E+00
         13   -1    0    0    0    0  0.00000000000E+00  0.00000000000E+00  0.14999999963E+04  0.15000000000E+04  0.10566000000E+00 0. -1.
        994   -1    0    0    0    0 -0.00000000000E+00 -0.00000000000E+00  0.11368683772E-12  0.17120000000E+03  0.17120000000E+03 0.  0.
         13    1    1    2    0    0 -0.12932203412E+02 -0.58129747882E+01  0.29470947048E+02  0.32704440752E+02  0.10566000000E+00 0. -1.
        994    1    1    2    0    0  0.27868223997E+01  0.16213439032E+02  0.41789372687E+01  0.17203937195E+03  0.17120000000E+03 0.  0.
        998    1    1    2    0    0  0.10145381012E+02 -0.10400464244E+02  0.14663501120E+04  0.14664561873E+04  0.10000000000E+02 0. -1.
</event>
<event>
 5    1  0.1533416E-008  0.3765036E+03  0.7957747E-01  0.3466525E+00
         13   -1    0    0    0    0  0.00000000000E+00  0.00000000000E+00  0.14999999963E+04  0.15000000000E+04  0.10566000000E+00 0.  1.
        994   -1    0    0    0    0 -0.00000000000E+00 -0.00000000000E+00  0.11368683772E-12  0.17120000000E+03  0.17120000000E+03 0.  0.
         13    1    1    2    0    0 -0.12370842506E+02 -0.39554628245E+02  0.13722691531E+03  0.14334867913E+03  0.10566000000E+00 0.  1.
        994    1    1    2    0    0 -0.27433052121E+02  0.44366954934E+02  0.15167178143E+02  0.17961203281E+03  0.17120000000E+03 0.  0.
        998    1    1    2    0    0  0.39803894626E+02 -0.48123266888E+01  0.13476059028E+04  0.13482392881E+04  0.10000000000E+02 0.  1.
</event>
<event>
 5    1  0.1533416E-008  0.3855710E+03  0.7957747E-01  0.3427254E+00
         13   -1    0    0    0    0  0.00000000000E+00  0.00000000000E+00  0.14999999963E+04  0.15000000000E+04  0.10566000000E+00 0.  1.
        994   -1    0    0    0    0 -0.00000000000E+00 -0.00000000000E+00  0.11368683772E-12  0.17120000000E+03  0.17120000000E+03 0.  0.
         13    1    1    2    0    0 -0.12095760722E+02 -0.12291387748E+02  0.10410136821E+03  0.10552010078E+03  0.10566000000E+00 0.  1.
        994    1    1    2    0    0  0.11771601002E+02  0.14183821700E+02  0.24629530328E+01  0.17220701939E+03  0.17120000000E+03 0.  0.
        998    1    1    2    0    0  0.32415972041E+00 -0.18924339520E+01  0.13934356750E+04  0.13934728798E+04  0.10000000000E+02 0.  1.
</event>
<event>
 5    1  0.1533416E-008  0.3793960E+03  0.7957747E-01  0.3453793E+00
         13   -1    0    0    0    0  0.00000000000E+00  0.00000000000E+00  0.14999999963E+04  0.15000000000E+04  0.10566000000E+00 0.  1.
        994   -1    0    0    0    0 -0.00000000000E+00 -0.00000000000E+00  0.11368683772E-12  0.17120000000E+03  0.17120000000E+03 0.  0.
         13    1    1    2    0    0 -0.18680199359E+02 -0.16681045627E+02  0.12540682226E+02  0.28008695186E+02  0.10566000000E+00 0.  1.
        994    1    1    2    0    0  0.18383315678E+02  0.18534762887E+02  0.18463597100E+02  0.17416035183E+03  0.17120000000E+03 0.  0.
        998    1    1    2    0    0  0.29688368090E+00 -0.18537172607E+01  0.14689957170E+04  0.14690309530E+04  0.10000000000E+02 0.  1.
</event>
<event>
 5    1  0.1533416E-008  0.3738277E+03  0.7957747E-01  0.3478482E+00
         13   -1    0    0    0    0  0.00000000000E+00  0.00000000000E+00  0.14999999963E+04  0.15000000000E+04  0.10566000000E+00 0. -1.
        994   -1    0    0    0    0 -0.00000000000E+00 -0.00000000000E+00  0.11368683772E-12  0.17120000000E+03  0.17120000000E+03 0.  0.
         13    1    1    2    0    0 -0.31660331383E+02 -0.95588135209E+01  0.10014697920E+03  0.10546646911E+03  0.10566000000E+00 0. -1.
        994    1    1    2    0    0 -0.60514470543E+02  0.66756247455E+01  0.20038649906E+02  0.18280468430E+03  0.17120000000E+03 0.  0.
        998    1    1    2    0    0  0.92174801926E+02  0.28831887754E+01  0.13798143672E+04  0.13829288466E+04  0.10000000000E+02 0. -1.
</event>
<event>
 5    1  0.1533416E-008  0.3796505E+03  0.7957747E-01  0.3452682E+00
         13   -1    0    0    0    0  0.00000000000E+00  0.00000000000E+00  0.14999999963E+04  0.15000000000E+04  0.10566000000E+00 0.  1.
        994   -1    0    0    0    0 -0.00000000000E+00 -0.00000000000E+00  0.11368683772E-12  0.17120000000E+03  0.17120000000E+03 0.  0.
         13    1    1    2    0    0  0.25675873838E+02 -0.49487501568E+01  0.77786057264E+02  0.82063527186E+02  0.10566000000E+00 0.  1.
        994    1    1    2    0    0 -0.16837698534E+02 -0.10657885198E+01  0.52628760157E+01  0.17210979595E+03  0.17120000000E+03 0.  0.
        998    1    1    2    0    0 -0.88381753043E+01  0.60145386766E+01  0.14169510630E+04  0.14170266769E+04  0.10000000000E+02 0.  1.
</event>
<event>
 5    1  0.1533416E-008  0.3835003E+03  0.7957747E-01  0.3436058E+00
         13   -1    0    0    0    0  0.00000000000E+00  0.00000000000E+00  0.14999999963E+04  0.15000000000E+04  0.10566000000E+00 0. -1.
        994   -1    0    0    0    0 -0.00000000000E+00 -0.00000000000E+00  0.11368683772E-12  0.17120000000E+03  0.17120000000E+03 0.  0.
         13    1    1    2    0    0  0.13699264005E+01 -0.26820199303E+02  0.15731728250E+03  0.15959303971E+03  0.10566000000E+00 0. -1.
        994    1    1    2    0    0 -0.18903187849E+01  0.11224440470E+02  0.28048288265E+01  0.17160089870E+03  0.17120000000E+03 0.  0.
        998    1    1    2    0    0  0.52039238442E+00  0.15595758832E+02  0.13398778850E+04  0.13400060616E+04  0.10000000000E+02 0. -1.
</event>
<event>
 5    1  0.1533416E-008  0.3795290E+03  0.7957747E-01  0.3453212E+00
         13   -1    0    0    0    0  0.00000000000E+00  0.00000000000E+00  0.14999999963E+04  0.15000000000E+04  0.10566000000E+00 0.  1.
        994   -1    0    0    0    0 -0.00000000000E+00 -0.00000000000E+00  0.11368683772E-12  0.17120000000E+03  0.17120000000E+03 0.  0.
         13    1    1    2    0    0 -0.19868200486E+02  0.84699629656E+01  0.52944351649E+02  0.57180426710E+02  0.10566000000E+00 0.  1.
        994    1    1    2    0    0  0.34745023357E+01 -0.11892459742E+02  0.48852057083E+01  0.17171723268E+03  0.17120000000E+03 0.  0.
        998    1    1    2    0    0  0.16393698151E+02  0.34224967765E+01  0.14421704389E+04  0.14423023406E+04  0.10000000000E+02 0.  1.
</event>
<event>
 5    1  0.1533416E-008  0.3842626E+03  0.7957747E-01  0.3432806E+00
         13   -1    0    0    0    0  0.00000000000E+00  0.00000000000E+00  0.14999999963E+04  0.15000000000E+04  0.10566000000E+00 0. -1.
        994   -1    0    0    0    0 -0.00000000000E+00 -0.00000000000E+00  0.11368683772E-12  0.17120000000E+03  0.17120000000E+03 0.  0.
         13    1    1    2    0    0  0.11323523982E+02 -0.15619639737E+01  0.31014870758E+02  0.33054429340E+02  0.10566000000E+00 0. -1.
        994    1    1    2    0    0 -0.16523246848E+02  0.61114836436E+01  0.30205073333E+01  0.17213056493E+03  0.17120000000E+03 0.  0.
        998    1    1    2    0    0  0.51997228659E+01 -0.45495196698E+01  0.14659646182E+04  0.14660150057E+04  0.10000000000E+02 0. -1.
</event>
<event>
 5    1  0.1533416E-008  0.3779242E+03  0.7957747E-01  0.3460247E+00
         13   -1    0    0    0    0  0.00000000000E+00  0.00000000000E+00  0.14999999963E+04  0.15000000000E+04  0.10566000000E+00 0.  1.
        994   -1    0    0    0    0 -0.00000000000E+00 -0.00000000000E+00  0.11368683772E-12  0.17120000000E+03  0.17120000000E+03 0.  0.
         13    1    1    2    0    0 -0.13666579538E+02 -0.40292950704E+01  0.17324903886E+02  0.22431541939E+02  0.10566000000E+00 0.  1.
        994    1    1    2    0    0  0.95795893489E+01  0.49961041147E+01  0.55776876658E+01  0.17163123314E+03  0.17120000000E+03 0.  0.
        998    1    1    2    0    0  0.40869901889E+01 -0.96680904432E+00  0.14770974047E+04  0.14771372249E+04  0.10000000000E+02 0.  1.
</event>
<event>
 5    1  0.1533416E-008  0.3823116E+03  0.7957747E-01  0.3441155E+00
         13   -1    0    0    0    0  0.00000000000E+00  0.00000000000E+00  0.14999999963E+04  0.15000000000E+04  0.10566000000E+00 0.  1.
        994   -1    0    0    0    0 -0.00000000000E+00 -0.00000000000E+00  0.11368683772E-12  0.17120000000E+03  0.17120000000E+03 0.  0.
         13    1    1    2    0    0  0.16266913075E+02 -0.35971969789E+01  0.45853464133E+02  0.48786305703E+02  0.10566000000E+00 0.  1.
        994    1    1    2    0    0 -0.63778470778E+01  0.19516972159E+02  0.43707177502E+01  0.17248226665E+03  0.17120000000E+03 0.  0.
        998    1    1    2    0    0 -0.98890659975E+01 -0.15919775180E+02  0.14497758144E+04  0.14499314276E+04  0.10000000000E+02 0.  1.
</event>
<event>
 5    1  0.1533416E-008  0.3833631E+03  0.7957747E-01  0.3436644E+00
         13   -1    0    0    0    0  0.00000000000E+00  0.00000000000E+00  0.14999999963E+04  0.15000000000E+04  0.10566000000E+00 0.  1.
        994   -1    0    0    0    0 -0.00000000000E+00 -0.00000000000E+00  0.11368683772E-12  0.17120000000E+03  0.17120000000E+03 0.  0.
         13    1    1    2    0    0 -0.84604105633E+01  0.12910036344E+02  0.48622234623E+02  0.51013532020E+02  0.10566000000E+00 0.  1.
        994    1    1    2    0    0  0.65150728314E+01 -0.48075626937E+01  0.26617998907E+01  0.17141202995E+03  0.17120000000E+03 0.  0.
        998    1    1    2    0    0  0.19453377319E+01 -0.81024736501E+01  0.14487159618E+04  0.14487744380E+04  0.10000000000E+02 0.  1.
</event>
<event>
 5    1  0.1533416E-008  0.3810280E+03  0.7957747E-01  0.3446694E+00
         13   -1    0    0    0    0  0.00000000000E+00  0.00000000000E+00  0.14999999963E+04  0.15000000000E+04  0.10566000000E+00 0. -1.
        994   -1    0    0    0    0 -0.00000000000E+00 -0.00000000000E+00  0.11368683772E-12  0.17120000000E+03  0.17120000000E+03 0.  0.
         13    1    1    2    0    0  0.17705181531E+02  0.29946879641E+01  0.44449919644E+02  0.47940047241E+02  0.10566000000E+00 0. -1.
        994    1    1    2    0    0 -0.47981280707E+01 -0.10064705008E+00  0.36918558384E+01  0.17130704003E+03  0.17120000000E+03 0.  0.
        998    1    1    2    0    0 -0.12907053460E+02 -0.28940409140E+01  0.14518582208E+04  0.14519529127E+04  0.10000000000E+02 0. -1.
</event>
<event>
 5    1  0.1533416E-008  0.3763743E+03  0.7957747E-01  0.3467099E+00
         13   -1    0    0    0    0  0.00000000000E+00  0.00000000000E+00  0.14999999963E+04  0.15000000000E+04  0.10566000000E+00 0.  1.
        994   -1    0    0    0    0 -0.00000000000E+00 -0.00000000000E+00  0.11368683772E-12  0.17120000000E+03  0.17120000000E+03 0.  0.
         13    1    1    2    0    0  0.54714922259E+02  0.18360392426E+02  0.26297149312E+03  0.26923009505E+03  0.10566000000E+00 0.  1.
        994    1    1    2    0    0 -0.40351062867E+02 -0.57521018923E+01  0.11616449067E+02  0.17636801535E+03  0.17120000000E+03 0.  0.
        998    1    1    2    0    0 -0.14363859392E+02 -0.12608290534E+02  0.12254120541E+04  0.12256018896E+04  0.10000000000E+02 0.  1.
</event>
<event>
 5    1  0.1533416E-008  0.3689734E+03  0.7957747E-01  0.3500622E+00
         13   -1    0    0    0    0  0.00000000000E+00  0.00000000000E+00  0.14999999963E+04  0.15000000000E+04  0.10566000000E+00 0. -1.
        994   -1    0    0    0    0 -0.00000000000E+00 -0.00000000000E+00  0.11368683772E-12  0.17120000000E+03  0.17120000000E+03 0.  0.
         13    1    1    2    0    0 -0.44864084881E+01  0.57781957796E+02  0.17407275261E+03  0.18346720926E+03  0.10566000000E+00 0. -1.
        994    1    1    2    0    0  0.24524365539E+00 -0.27336694702E+02  0.12404284111E+02  0.17381214367E+03  0.17120000000E+03 0.  0.
        998    1    1    2    0    0  0.42411648327E+01 -0.30445263094E+02  0.13135229596E+04  0.13139206471E+04  0.10000000000E+02 0. -1.
</event>
<event>
 5    1  0.1533416E-008  0.4268580E+03  0.7957747E-01  0.3269484E+00
         13   -1    0    0    0    0  0.00000000000E+00  0.00000000000E+00  0.14999999963E+04  0.15000000000E+04  0.10566000000E+00 0. -1.
        994   -1    0    0    0    0 -0.00000000000E+00 -0.00000000000E+00  0.11368683772E-12  0.17120000000E+03  0.17120000000E+03 0.  0.
         13    1    1    2    0    0 -0.88940066963E+01 -0.70387130717E+02  0.39186562500E+02  0.81049672241E+02  0.10566000000E+00 0. -1.
        994    1    1    2    0    0  0.42628576770E+01  0.77661411561E+02  0.72122364310E+02  0.20139648019E+03  0.17120000000E+03 0.  0.
        998    1    1    2    0    0  0.46311490193E+01 -0.72742808441E+01  0.13886910695E+04  0.13887538476E+04  0.10000000000E+02 0. -1.
</event>
<event>
 5    1  0.1533416E-008  0.3858526E+03  0.7957747E-01  0.3426064E+00
         13   -1    0    0    0    0  0.00000000000E+00  0.00000000000E+00  0.14999999963E+04  0.15000000000E+04  0.10566000000E+00 0.  1.
        994   -1    0    0    0    0 -0.00000000000E+00 -0.00000000000E+00  0.11368683772E-12  0.17120000000E+03  0.17120000000E+03 0.  0.
         13    1    1    2    0    0  0.11946686466E+03  0.24004983893E+01  0.35111462212E+03  0.37089025759E+03  0.10566000000E+00 0.  1.
        994    1    1    2    0    0 -0.75826546504E+02 -0.18186346740E+01  0.41211234196E+02  0.19173100535E+03  0.17120000000E+03 0.  0.
        998    1    1    2    0    0 -0.43640318152E+02 -0.58186371537E+00  0.11076741400E+04  0.11085787371E+04  0.10000000000E+02 0.  1.
</event>
<event>
 5    1  0.1533416E-008  0.3834415E+03  0.7957747E-01  0.3436309E+00
         13   -1    0    0    0    0  0.00000000000E+00  0.00000000000E+00  0.14999999963E+04  0.15000000000E+04  0.10566000000E+00 0. -1.
        994   -1    0    0    0    0 -0.00000000000E+00 -0.00000000000E+00  0.11368683772E-12  0.17120000000E+03  0.17120000000E+03 0.  0.
         13    1    1    2    0    0  0.27242441346E+01 -0.18151467927E+02  0.70522109640E+02  0.72871643361E+02  0.10566000000E+00 0. -1.
        994    1    1    2    0    0  0.88626293119E+01  0.10439366753E+02  0.30259493206E+01  0.17177346403E+03  0.17120000000E+03 0.  0.
        998    1    1    2    0    0 -0.11586873446E+02  0.77121011739E+01  0.14264519373E+04  0.14265548926E+04  0.10000000000E+02 0. -1.
</event>
<event>
 5    1  0.1533416E-008  0.3791475E+03  0.7957747E-01  0.3454879E+00
         13   -1    0    0    0    0  0.00000000000E+00  0.00000000000E+00  0.14999999963E+04  0.15000000000E+04  0.10566000000E+00 0. -1.
        994   -1    0    0    0    0 -0.00000000000E+00 -0.00000000000E+00  0.11368683772E-12  0.17120000000E+03  0.17120000000E+03 0.  0.
         13    1    1    2    0    0  0.56623726297E+02  0.75657904775E+02  0.54141723762E+03  0.54960258487E+03  0.10566000000E+00 0. -1.
        994    1    1    2    0    0 -0.66352725362E+02 -0.79939532562E+02  0.41641026932E+02  0.20453955156E+03  0.17120000000E+03 0.  0.
        998    1    1    2    0    0  0.97289990651E+01  0.42816277870E+01  0.91694173172E+03  0.91705786357E+03  0.10000000000E+02 0.  0.
</event>
<event>
 5    1  0.1533416E-008  0.3723829E+03  0.7957747E-01  0.3485011E+00
         13   -1    0    0    0    0  0.00000000000E+00  0.00000000000E+00  0.14999999963E+04  0.15000000000E+04  0.10566000000E+00 0. -1.
        994   -1    0    0    0    0 -0.00000000000E+00 -0.00000000000E+00  0.11368683772E-12  0.17120000000E+03  0.17120000000E+03 0.  0.
         13    1    1    2    0    0 -0.38259501407E+01 -0.27888338884E+02  0.26595334259E+02  0.38726222493E+02  0.10566000000E+00 0. -1.
        994    1    1    2    0    0  0.41588311051E+02  0.26667855724E+02  0.20859232416E+02  0.17940264692E+03  0.17120000000E+03 0.  0.
        998    1    1    2    0    0 -0.37762360911E+02  0.12204831602E+01  0.14525454296E+04  0.14530711306E+04  0.10000000000E+02 0. -1.
</event>
<event>
 5    1  0.1533416E-008  0.3792176E+03  0.7957747E-01  0.3454572E+00
         13   -1    0    0    0    0  0.00000000000E+00  0.00000000000E+00  0.14999999963E+04  0.15000000000E+04  0.10566000000E+00 0. -1.
        994   -1    0    0    0    0 -0.00000000000E+00 -0.00000000000E+00  0.11368683772E-12  0.17120000000E+03  0.17120000000E+03 0.  0.
         13    1    1    2    0    0  0.17536984675E+01  0.18504480213E+02  0.36286041072E+02  0.40769831825E+02  0.10566000000E+00 0. -1.
        994    1    1    2    0    0 -0.33163642411E+01 -0.12899489073E+02  0.51233983589E+01  0.17179372602E+03  0.17120000000E+03 0.  0.
        998    1    1    2    0    0  0.15626657736E+01 -0.56049911404E+01  0.14585905568E+04  0.14586364422E+04  0.10000000000E+02 0. -1.
</event>
<event>
 5    1  0.1533416E-008  0.3857353E+03  0.7957747E-01  0.3426560E+00
         13   -1    0    0    0    0  0.00000000000E+00  0.00000000000E+00  0.14999999963E+04  0.15000000000E+04  0.10566000000E+00 0.  1.
        994   -1    0    0    0    0 -0.00000000000E+00 -0.00000000000E+00  0.11368683772E-12  0.17120000000E+03  0.17120000000E+03 0.  0.
         13    1    1    2    0    0  0.10473727933E+02 -0.37788389121E+00  0.46782880005E+02  0.47942578140E+02  0.10566000000E+00 0.  1.
        994    1    1    2    0    0  0.40760133151E+01  0.28396449016E+01  0.13464693733E+01  0.17127734949E+03  0.17120000000E+03 0.  0.
        998    1    1    2    0    0 -0.14549741248E+02 -0.24617610104E+01  0.14518706469E+04  0.14519800724E+04  0.10000000000E+02 0.  1.
</event>
<event>
 5    1  0.1533416E-008  0.3848357E+03  0.7957747E-01  0.3430369E+00
         13   -1    0    0    0    0  0.00000000000E+00  0.00000000000E+00  0.14999999963E+04  0.15000000000E+04  0.10566000000E+00 0.  1.
        994   -1    0    0    0    0 -0.00000000000E+00 -0.00000000000E+00  0.11368683772E-12  0.17120000000E+03  0.17120000000E+03 0.  0.
         13    1    1    2    0    0  0.86794322698E+01 -0.12883412312E+02  0.69547972748E+02  0.71261816807E+02  0.10566000000E+00 0.  1.
        994    1    1    2    0    0 -0.84749582906E+01  0.89375750408E+01  0.22110458553E+01  0.17165673272E+03  0.17120000000E+03 0.  0.
        998    1    1    2    0    0 -0.20447397913E+00  0.39458372715E+01  0.14282409777E+04  0.14282814505E+04  0.10000000000E+02 0.  1.
</event>
<event>
 5    1  0.1533416E-008  0.3763335E+03  0.7957747E-01  0.3467280E+00
         13   -1    0    0    0    0  0.00000000000E+00  0.00000000000E+00  0.14999999963E+04  0.15000000000E+04  0.10566000000E+00 0. -1.
        994   -1    0    0    0    0 -0.00000000000E+00 -0.00000000000E+00  0.11368683772E-12  0.17120000000E+03  0.17120000000E+03 0.  0.
         13    1    1    2    0    0  0.29918207863E+01  0.67684238258E+02  0.30099582852E+03  0.30852650947E+03  0.10566000000E+00 0. -1.
        994    1    1    2    0    0  0.77332004390E+01 -0.69897001532E+02  0.22918365966E+02  0.18649419484E+03  0.17120000000E+03 0.  0.
        998    1    1    2    0    0 -0.10725021225E+02  0.22127632738E+01  0.11760858018E+04  0.11761792957E+04  0.10000000000E+02 0. -1.
</event>
<event>
 5    1  0.1533416E-008  0.3725705E+03  0.7957747E-01  0.3484160E+00
         13   -1    0    0    0    0  0.00000000000E+00  0.00000000000E+00  0.14999999963E+04  0.15000000000E+04  0.10566000000E+00 0.  1.
        994   -1    0    0    0    0 -0.00000000000E+00 -0.00000000000E+00  0.11368683772E-12  0.17120000000E+03  0.17120000000E+03 0.  0.
         13    1    1    2    0    0  0.38008999623E+02  0.58944797439E+02  0.41913616247E+03  0.42496388912E+03  0.10566000000E+00 0.  1.
        994    1    1    2    0    0  0.33812305800E+00 -0.79465689350E+01  0.81485090613E+01  0.17157826344E+03  0.17120000000E+03 0.  0.
        998    1    1    2    0    0 -0.38347122681E+02 -0.50998228504E+02  0.10727153247E+04  0.10746578474E+04  0.10000000000E+02 0.  0.
</event>
<event>
 5    1  0.1533416E-008  0.3843573E+03  0.7957747E-01  0.3432402E+00
         13   -1    0    0    0    0  0.00000000000E+00  0.00000000000E+00  0.14999999963E+04  0.15000000000E+04  0.10566000000E+00 0.  1.
        994   -1    0    0    0    0 -0.00000000000E+00 -0.00000000000E+00  0.11368683772E-12  0.17120000000E+03  0.17120000000E+03 0.  0.
         13    1    1    2    0    0 -0.20125645241E+01 -0.11599283655E+02  0.34517045906E+02  0.36469595821E+02  0.10566000000E+00 0.  1.
        994    1    1    2    0    0 -0.16471461478E+01  0.12429181452E+02  0.24677630945E+01  0.17167622869E+03  0.17120000000E+03 0.  0.
        998    1    1    2    0    0  0.36597106718E+01 -0.82989779679E+00  0.14630151873E+04  0.14630541755E+04  0.10000000000E+02 0.  1.
</event>
<event>
 5    1  0.1533416E-008  0.3857848E+03  0.7957747E-01  0.3426351E+00
         13   -1    0    0    0    0  0.00000000000E+00  0.00000000000E+00  0.14999999963E+04  0.15000000000E+04  0.10566000000E+00 0.  1.
        994   -1    0    0    0    0 -0.00000000000E+00 -0.00000000000E+00  0.11368683772E-12  0.17120000000E+03  0.17120000000E+03 0.  0.
         13    1    1    2    0    0  0.12224453889E+02  0.17427398142E+01  0.58330682217E+02  0.59623435551E+02  0.10566000000E+00 0.  1.
        994    1    1    2    0    0 -0.16478341855E+02 -0.61388977910E+01  0.22560016480E+01  0.17211551749E+03  0.17120000000E+03 0.  0.
        998    1    1    2    0    0  0.42538879667E+01  0.43961579769E+01  0.14394133124E+04  0.14394610470E+04  0.10000000000E+02 0.  1.
</event>
<event>
 5    1  0.1533416E-008  0.3802903E+03  0.7957747E-01  0.3449895E+00
         13   -1    0    0    0    0  0.00000000000E+00  0.00000000000E+00  0.14999999963E+04  0.15000000000E+04  0.10566000000E+00 0.  1.
        994   -1    0    0    0    0 -0.00000000000E+00 -0.00000000000E+00  0.11368683772E-12  0.17120000000E+03  0.17120000000E+03 0.  0.
         13    1    1    2    0    0 -0.30055061097E+02 -0.19715630069E+01  0.10649322768E+03  0.11067073897E+03  0.10566000000E+00 0.  1.
        994    1    1    2    0    0  0.28028891969E+02  0.52171753290E+01  0.67060549015E+01  0.17368721564E+03  0.17120000000E+03 0.  0.
        998    1    1    2    0    0  0.20261691285E+01 -0.32456123220E+01  0.13868007137E+04  0.13868420454E+04  0.10000000000E+02 0.  1.
</event>
<event>
 5    1  0.1533416E-008  0.3710889E+03  0.7957747E-01  0.3490901E+00
         13   -1    0    0    0    0  0.00000000000E+00  0.00000000000E+00  0.14999999963E+04  0.15000000000E+04  0.10566000000E+00 0. -1.
        994   -1    0    0    0    0 -0.00000000000E+00 -0.00000000000E+00  0.11368683772E-12  0.17120000000E+03  0.17120000000E+03 0.  0.
         13    1    1    2    0    0 -0.59174072761E+02  0.27665027260E+02  0.39132704145E+03  0.39674146387E+03  0.10566000000E+00 0. -1.
        994    1    1    2    0    0 -0.20811818860E+02 -0.33295459395E+01  0.10232711248E+02  0.17279573507E+03  0.17120000000E+03 0.  0.
        998    1    1    2    0    0  0.79985891621E+02 -0.24335481320E+02  0.10984402436E+04  0.11016628011E+04  0.10000000000E+02 0. -1.
</event>
<event>
 5    1  0.1533416E-008  0.3700445E+03  0.7957747E-01  0.3495687E+00
         13   -1    0    0    0    0  0.00000000000E+00  0.00000000000E+00  0.14999999963E+04  0.15000000000E+04  0.10566000000E+00 0.  1.
        994   -1    0    0    0    0 -0.00000000000E+00 -0.00000000000E+00  0.11368683772E-12  0.17120000000E+03  0.17120000000E+03 0.  0.
         13    1    1    2    0    0  0.67201935235E+01 -0.19423612207E+02  0.13960637110E+02  0.24846494013E+02  0.10566000000E+00 0.  1.
        994    1    1    2    0    0 -0.14746752669E+02  0.27680366012E+02  0.14409498155E+02  0.17464461920E+03  0.17120000000E+03 0.  0.
        998    1    1    2    0    0  0.80265591454E+01 -0.82567538042E+01  0.14716298610E+04  0.14717088868E+04  0.10000000000E+02 0.  1.
</event>
<event>
 5    1  0.1533416E-008  0.2234517E+03  0.7957747E-01  0.4660036E+00
         13   -1    0    0    0    0  0.00000000000E+00  0.00000000000E+00  0.14999999963E+04  0.15000000000E+04  0.10566000000E+00 0.  1.
        994   -1    0    0    0    0 -0.00000000000E+00 -0.00000000000E+00  0.11368683772E-12  0.17120000000E+03  0.17120000000E+03 0.  0.
         13    1    1    2    0    0 -0.94693593531E+02 -0.10804436068E+03  0.15346032456E+03  0.21021546782E+03  0.10566000000E+00 0.  1.
        994    1    1    2    0    0  0.10987658238E+03  0.86874594394E+02  0.15732331978E+03  0.27144083233E+03  0.17120000000E+03 0.  0.
        998    1    1    2    0    0 -0.15182988853E+02  0.21169766287E+02  0.11892163519E+04  0.11895436999E+04  0.10000000000E+02 0.  1.
</event>
<event>
 5    1  0.1533416E-008  0.3829848E+03  0.7957747E-01  0.3438264E+00
         13   -1    0    0    0    0  0.00000000000E+00  0.00000000000E+00  0.14999999963E+04  0.15000000000E+04  0.10566000000E+00 0. -1.
        994   -1    0    0    0    0 -0.00000000000E+00 -0.00000000000E+00  0.11368683772E-12  0.17120000000E+03  0.17120000000E+03 0.  0.
         13    1    1    2    0    0  0.22750637969E+02  0.39038294961E+01  0.93217276614E+02  0.96032823744E+02  0.10566000000E+00 0. -1.
        994    1    1    2    0    0 -0.24572885671E+02 -0.15462517589E+02  0.54292696070E+01  0.17372919481E+03  0.17120000000E+03 0.  0.
        998    1    1    2    0    0  0.18222477018E+01  0.11558688092E+02  0.14013534501E+04  0.14014379814E+04  0.10000000000E+02 0. -1.
</event>
<event>
 5    1  0.1533416E-008  0.3785094E+03  0.7957747E-01  0.3457675E+00
         13   -1    0    0    0    0  0.00000000000E+00  0.00000000000E+00  0.14999999963E+04  0.15000000000E+04  0.10566000000E+00 0.  1.
        994   -1    0    0    0    0 -0.00000000000E+00 -0.00000000000E+00  0.11368683772E-12  0.17120000000E+03  0.17120000000E+03 0.  0.
         13    1    1    2    0    0  0.99315945911E+01  0.56314245564E+01  0.11115575543E+02  0.15934763799E+02  0.10566000000E+00 0.  1.
        994    1    1    2    0    0 -0.96117775056E+01 -0.36817771850E+01  0.52434649307E+01  0.17158926445E+03  0.17120000000E+03 0.  0.
        998    1    1    2    0    0 -0.31981708551E+00 -0.19496473714E+01  0.14836409558E+04  0.14836759718E+04  0.10000000000E+02 0.  1.
</event>
<event>
 5    1  0.1533416E-008  0.3815337E+03  0.7957747E-01  0.3444507E+00
         13   -1    0    0    0    0  0.00000000000E+00  0.00000000000E+00  0.14999999963E+04  0.15000000000E+04  0.10566000000E+00 0. -1.
        994   -1    0    0    0    0 -0.00000000000E+00 -0.00000000000E+00  0.11368683772E-12  0.17120000000E+03  0.17120000000E+03 0.  0.
         13    1    1    2    0    0 -0.39048562241E+01 -0.39273116680E+02  0.21760057567E+03  0.22115073432E+03  0.10566000000E+00 0. -1.
        994    1    1    2    0    0 -0.57097564747E+01  0.30465161423E+02  0.65629493499E+01  0.17410697770E+03  0.17120000000E+03 0.  0.
        998    1    1    2    0    0  0.96146126988E+01  0.88079552572E+01  0.12758364713E+04  0.12759422880E+04  0.10000000000E+02 0. -1.
</event>
<event>
 5    1  0.1533416E-008  0.3745987E+03  0.7957747E-01  0.3475019E+00
         13   -1    0    0    0    0  0.00000000000E+00  0.00000000000E+00  0.14999999963E+04  0.15000000000E+04  0.10566000000E+00 0.  1.
        994   -1    0    0    0    0 -0.00000000000E+00 -0.00000000000E+00  0.11368683772E-12  0.17120000000E+03  0.17120000000E+03 0.  0.
         13    1    1    2    0    0 -0.19248109015E+02  0.20128868389E+01  0.23910861871E+02  0.30761695232E+02  0.10566000000E+00 0.  1.
        994    1    1    2    0    0  0.19621106134E+02 -0.38438281032E+01  0.82468340295E+01  0.17256075189E+03  0.17120000000E+03 0.  0.
        998    1    1    2    0    0 -0.37299711923E+00  0.18309412643E+01  0.14678423004E+04  0.14678775529E+04  0.10000000000E+02 0.  1.
</event>
<event>
 5    1  0.1533416E-008  0.3733507E+03  0.7957747E-01  0.3480632E+00
         13   -1    0    0    0    0  0.00000000000E+00  0.00000000000E+00  0.14999999963E+04  0.15000000000E+04  0.10566000000E+00 0.  1.
        994   -1    0    0    0    0 -0.00000000000E+00 -0.00000000000E+00  0.11368683772E-12  0.17120000000E+03  0.17120000000E+03 0.  0.
         13    1    1    2    0    0  0.20661063753E+03 -0.19031124803E+02  0.99047424451E+03  0.10119730132E+04  0.10566000000E+00 0.  1.
        994    1    1    2    0    0 -0.20992517336E+03  0.79826969057E+02  0.20614964848E+03  0.34963987325E+03  0.17120000000E+03 0.  0.
        998    1    1    2    0    0  0.33145358315E+01 -0.60795844254E+02  0.30337610328E+03  0.30958711354E+03  0.10000000000E+02 0.  1.
</event>
<event>
 5    1  0.3131054E-008  0.3860293E+03  0.7957747E-01  0.3425319E+00
         13   -1    0    0    0    0  0.00000000000E+00  0.00000000000E+00  0.14999999963E+04  0.15000000000E+04  0.10566000000E+00 0. -1.
        994   -1    0    0    0    0 -0.00000000000E+00 -0.00000000000E+00  0.11368683772E-12  0.17120000000E+03  0.17120000000E+03 0.  0.
         13    1    1    2    0    0 -0.11343286656E+02  0.48289127508E+01  0.72404546044E+02  0.73446701781E+02  0.10566000000E+00 0. -1.
        994    1    1    2    0    0  0.76474282960E+00 -0.24171989156E+01  0.11410391821E+01  0.17122257343E+03  0.17120000000E+03 0.  0.
        998    1    1    2    0    0  0.10578543826E+02 -0.24117138352E+01  0.14264544111E+04  0.14265307248E+04  0.10000000000E+02 0. -1.
</event>
<event>
 5    1  0.1533416E-008  0.3859154E+03  0.7957747E-01  0.3425799E+00
         13   -1    0    0    0    0  0.00000000000E+00  0.00000000000E+00  0.14999999963E+04  0.15000000000E+04  0.10566000000E+00 0. -1.
        994   -1    0    0    0    0 -0.00000000000E+00 -0.00000000000E+00  0.11368683772E-12  0.17120000000E+03  0.17120000000E+03 0.  0.
         13    1    1    2    0    0 -0.76922067450E+02 -0.13221442594E+01  0.15325942868E+03  0.17148532348E+03  0.10566000000E+00 0. -1.
        994    1    1    2    0    0  0.34414058123E+02  0.94719523606E+00  0.24017725930E+02  0.17627114266E+03  0.17120000000E+03 0.  0.
        998    1    1    2    0    0  0.42508009327E+02  0.37494902331E+00  0.13227228417E+04  0.13234435339E+04  0.10000000000E+02 0. -1.
</event>
<event>
 5    1  0.1533416E-008  0.3809466E+03  0.7957747E-01  0.3447047E+00
         13   -1    0    0    0    0  0.00000000000E+00  0.00000000000E+00  0.14999999963E+04  0.15000000000E+04  0.10566000000E+00 0.  1.
        994   -1    0    0    0    0 -0.00000000000E+00 -0.00000000000E+00  0.11368683772E-12  0.17120000000E+03  0.17120000000E+03 0.  0.
         13    1    1    2    0    0  0.68518189007E+01  0.49150148587E+02  0.27538785490E+03  0.27982345562E+03  0.10566000000E+00 0.  1.
        994    1    1    2    0    0 -0.12555281796E+02 -0.48849037489E+02  0.12180380160E+02  0.17889009259E+03  0.17120000000E+03 0.  0.
        998    1    1    2    0    0  0.57034628950E+01 -0.30111109822E+00  0.12124317612E+04  0.12124864518E+04  0.10000000000E+02 0.  1.
</event>
<event>
 5    1  0.1533416E-008  0.3712239E+03  0.7957747E-01  0.3490285E+00
         13   -1    0    0    0    0  0.00000000000E+00  0.00000000000E+00  0.14999999963E+04  0.15000000000E+04  0.10566000000E+00 0.  1.
        994   -1    0    0    0    0 -0.00000000000E+00 -0.00000000000E+00  0.11368683772E-12  0.17120000000E+03  0.17120000000E+03 0.  0.
         13    1    1    2    0    0  0.27487376635E+01  0.10679064744E+02 -0.77560941529E+00  0.11054895592E+02  0.10566000000E+00 0.  1.
        994    1    1    2    0    0 -0.39190426245E+02 -0.67183705216E+02  0.33142023374E+02  0.19093814043E+03  0.17120000000E+03 0.  0.
        998    1    1    2    0    0  0.36441688582E+02  0.56504640471E+02  0.14676335823E+04  0.14692069640E+04  0.10000000000E+02 0.  1.
</event>
<event>
 5    1  0.1533416E-008  0.3821221E+03  0.7957747E-01  0.3441970E+00
         13   -1    0    0    0    0  0.00000000000E+00  0.00000000000E+00  0.14999999963E+04  0.15000000000E+04  0.10566000000E+00 0.  1.
        994   -1    0    0    0    0 -0.00000000000E+00 -0.00000000000E+00  0.11368683772E-12  0.17120000000E+03  0.17120000000E+03 0.  0.
         13    1    1    2    0    0 -0.17748329372E+02  0.25748678631E+02  0.12322557162E+03  0.12713201922E+03  0.10566000000E+00 0.  1.
        994    1    1    2    0    0  0.51136070485E+02 -0.36683707746E+02  0.16326745603E+02  0.18312999410E+03  0.17120000000E+03 0.  0.
        998    1    1    2    0    0 -0.33387741114E+02  0.10935029114E+02  0.13604476791E+04  0.13609379867E+04  0.10000000000E+02 0.  1.
</event>
<event>
 5    1  0.1533416E-008  0.3825121E+03  0.7957747E-01  0.3440292E+00
         13   -1    0    0    0    0  0.00000000000E+00  0.00000000000E+00  0.14999999963E+04  0.15000000000E+04  0.10566000000E+00 0. -1.
        994   -1    0    0    0    0 -0.00000000000E+00 -0.00000000000E+00  0.11368683772E-12  0.17120000000E+03  0.17120000000E+03 0.  0.
         13    1    1    2    0    0 -0.22126514673E+02  0.18185130090E+01  0.79973503675E+02  0.82997964404E+02  0.10566000000E+00 0. -1.
        994    1    1    2    0    0  0.29035016091E+02  0.32442138560E+02  0.91803812612E+01  0.17688765902E+03  0.17120000000E+03 0.  0.
        998    1    1    2    0    0 -0.69085014182E+01 -0.34260651569E+02  0.14108461113E+04  0.14113143766E+04  0.10000000000E+02 0. -1.
</event>
<event>
 5    1  0.1533416E-008  0.3827825E+03  0.7957747E-01  0.3439131E+00
         13   -1    0    0    0    0  0.00000000000E+00  0.00000000000E+00  0.14999999963E+04  0.15000000000E+04  0.10566000000E+00 0.  1.
        994   -1    0    0    0    0 -0.00000000000E+00 -0.00000000000E+00  0.11368683772E-12  0.17120000000E+03  0.17120000000E+03 0.  0.
         13    1    1    2    0    0 -0.34605328346E+02  0.48223567260E+01  0.19683012703E+03  0.19990721334E+03  0.10566000000E+00 0.  1.
        994    1    1    2    0    0  0.37341312066E+02  0.13879720112E+02  0.80098917917E+01  0.17595629737E+03  0.17120000000E+03 0.  0.
        998    1    1    2    0    0 -0.27359837198E+01 -0.18702076838E+02  0.12951599775E+04  0.12953364893E+04  0.10000000000E+02 0.  1.
</event>
<event>
 5    1  0.1533416E-008  0.3819644E+03  0.7957747E-01  0.3442649E+00
         13   -1    0    0    0    0  0.00000000000E+00  0.00000000000E+00  0.14999999963E+04  0.15000000000E+04  0.10566000000E+00 0. -1.
        994   -1    0    0    0    0 -0.00000000000E+00 -0.00000000000E+00  0.11368683772E-12  0.17120000000E+03  0.17120000000E+03 0.  0.
         13    1    1    2    0    0  0.13099180754E+01 -0.21029692907E+02  0.66254278586E+02  0.69524128647E+02  0.10566000000E+00 0. -1.
        994    1    1    2    0    0 -0.39665734321E+01  0.23503981208E+02  0.50341598885E+01  0.17292470501E+03  0.17120000000E+03 0.  0.
        998    1    1    2    0    0  0.26566553568E+01 -0.24742883007E+01  0.14287115578E+04  0.14287511663E+04  0.10000000000E+02 0. -1.
</event>
<event>
 5    1  0.1533416E-008  0.3715476E+03  0.7957747E-01  0.3488808E+00
         13   -1    0    0    0    0  0.00000000000E+00  0.00000000000E+00  0.14999999963E+04  0.15000000000E+04  0.10566000000E+00 0.  1.
        994   -1    0    0    0    0 -0.00000000000E+00 -0.00000000000E+00  0.11368683772E-12  0.17120000000E+03  0.17120000000E+03 0.  0.
         13    1    1    2    0    0  0.13928768599E+02 -0.13345784632E+02  0.16274951930E+02  0.25238973562E+02  0.10566000000E+00 0.  1.
        994    1    1    2    0    0 -0.82006065733E+02 -0.59527937929E+00  0.31960625846E+02  0.19250005397E+03  0.17120000000E+03 0.  0.
        998    1    1    2    0    0  0.68077297135E+02  0.13941064011E+02  0.14517644185E+04  0.14534609725E+04  0.10000000000E+02 0.  1.
</event>
<event>
 5    1  0.1533416E-008  0.3719615E+03  0.7957747E-01  0.3486925E+00
         13   -1    0    0    0    0  0.00000000000E+00  0.00000000000E+00  0.14999999963E+04  0.15000000000E+04  0.10566000000E+00 0.  1.
        994   -1    0    0    0    0 -0.00000000000E+00 -0.00000000000E+00  0.11368683772E-12  0.17120000000E+03  0.17120000000E+03 0.  0.
         13    1    1    2    0    0  0.18032454617E+02  0.33812232729E+01  0.16564434151E+02  0.24718287423E+02  0.10566000000E+00 0.  1.
        994    1    1    2    0    0 -0.20130300279E+02 -0.67897965879E+00  0.96419625501E+01  0.17265021704E+03  0.17120000000E+03 0.  0.
        998    1    1    2    0    0  0.20978456619E+01 -0.27022436141E+01  0.14737935996E+04  0.14738314955E+04  0.10000000000E+02 0.  1.
</event>
<event>
 5    1  0.1533416E-008  0.3835133E+03  0.7957747E-01  0.3436002E+00
         13   -1    0    0    0    0  0.00000000000E+00  0.00000000000E+00  0.14999999963E+04  0.15000000000E+04  0.10566000000E+00 0. -1.
        994   -1    0    0    0    0 -0.00000000000E+00 -0.00000000000E+00  0.11368683772E-12  0.17120000000E+03  0.17120000000E+03 0.  0.
         13    1    1    2    0    0  0.17420286939E+02  0.10787041618E+02  0.95508026168E+02  0.97681220766E+02  0.10566000000E+00 0. -1.
        994    1    1    2    0    0 -0.24053224533E+01  0.32102048751E+01  0.24232406357E+01  0.17126413252E+03  0.17120000000E+03 0.  0.
        998    1    1    2    0    0 -0.15014964486E+02 -0.13997246493E+02  0.14020687295E+04  0.14022546467E+04  0.10000000000E+02 0. -1.
</event>
<event>
 5    1  0.1533416E-008  0.3800322E+03  0.7957747E-01  0.3451018E+00
         13   -1    0    0    0    0  0.00000000000E+00  0.00000000000E+00  0.14999999963E+04  0.15000000000E+04  0.10566000000E+00 0. -1.
        994   -1    0    0    0    0 -0.00000000000E+00 -0.00000000000E+00  0.11368683772E-12  0.17120000000E+03  0.17120000000E+03 0.  0.
         13    1    1    2    0    0  0.25300531517E+01 -0.27824458648E+02  0.10312601682E+03  0.10684375591E+03  0.10566000000E+00 0. -1.
        994    1    1    2    0    0  0.21652189041E+02  0.69596363666E+00  0.56871310522E+01  0.17265886921E+03  0.17120000000E+03 0.  0.
        998    1    1    2    0    0 -0.24182242192E+02  0.27128495011E+02  0.13911868484E+04  0.13916973749E+04  0.10000000000E+02 0. -1.
</event>
<event>
 5    1  0.1533416E-008  0.3836906E+03  0.7957747E-01  0.3435245E+00
         13   -1    0    0    0    0  0.00000000000E+00  0.00000000000E+00  0.14999999963E+04  0.15000000000E+04  0.10566000000E+00 0.  1.
        994   -1    0    0    0    0 -0.00000000000E+00 -0.00000000000E+00  0.11368683772E-12  0.17120000000E+03  0.17120000000E+03 0.  0.
         13    1    1    2    0    0  0.14607508386E+02 -0.43985341054E+01  0.54553852354E+02  0.56646803742E+02  0.10566000000E+00 0.  1.
        994    1    1    2    0    0  0.49435876379E+01 -0.25943944332E+01  0.23845773025E+01  0.17130760681E+03  0.17120000000E+03 0.  0.
        998    1    1    2    0    0 -0.19551096024E+02  0.69929285386E+01  0.14430615666E+04  0.14432455895E+04  0.10000000000E+02 0.  1.
</event>
<event>
 5    1  0.1533416E-008  0.3837733E+03  0.7957747E-01  0.3434891E+00
         13   -1    0    0    0    0  0.00000000000E+00  0.00000000000E+00  0.14999999963E+04  0.15000000000E+04  0.10566000000E+00 0.  1.
        994   -1    0    0    0    0 -0.00000000000E+00 -0.00000000000E+00  0.11368683772E-12  0.17120000000E+03  0.17120000000E+03 0.  0.
         13    1    1    2    0    0 -0.11063877006E+02 -0.10102742377E+02  0.49602847763E+02  0.51816295200E+02  0.10566000000E+00 0.  1.
        994    1    1    2    0    0  0.45270137642E+01  0.94509343786E+01  0.26030519389E+01  0.17154016991E+03  0.17120000000E+03 0.  0.
        998    1    1    2    0    0  0.65368632419E+01  0.65180799890E+00  0.14477940966E+04  0.14478435349E+04  0.10000000000E+02 0.  1.
</event>
<event>
 5    1  0.1533416E-008  0.3850169E+03  0.7957747E-01  0.3429601E+00
         13   -1    0    0    0    0  0.00000000000E+00  0.00000000000E+00  0.14999999963E+04  0.15000000000E+04  0.10566000000E+00 0.  1.
        994   -1    0    0    0    0 -0.00000000000E+00 -0.00000000000E+00  0.11368683772E-12  0.17120000000E+03  0.17120000000E+03 0.  0.
         13    1    1    2    0    0 -0.36286522303E+01 -0.15078086602E+02  0.76064651328E+02  0.77629621654E+02  0.10566000000E+00 0.  1.
        994    1    1    2    0    0  0.47403234316E+01  0.55924718429E+01  0.17985282609E+01  0.17136633599E+03  0.17120000000E+03 0.  0.
        998    1    1    2    0    0 -0.11116712013E+01  0.94856147590E+01  0.14221368167E+04  0.14222040424E+04  0.10000000000E+02 0.  1.
</event>
<event>
 5    1  0.1533416E-008  0.3688806E+03  0.7957747E-01  0.3501051E+00
         13   -1    0    0    0    0  0.00000000000E+00  0.00000000000E+00  0.14999999963E+04  0.15000000000E+04  0.10566000000E+00 0. -1.
        994   -1    0    0    0    0 -0.00000000000E+00 -0.00000000000E+00  0.11368683772E-12  0.17120000000E+03  0.17120000000E+03 0.  0.
         13    1    1    2    0    0  0.22089619730E+02 -0.85405826679E+01  0.22369267933E+02  0.32577418007E+02  0.10566000000E+00 0. -1.
        994    1    1    2    0    0 -0.20573757611E+02  0.13415298197E+02  0.12451665456E+02  0.17340050087E+03  0.17120000000E+03 0.  0.
        998    1    1    2    0    0 -0.15158621188E+01 -0.48747155287E+01  0.14651790629E+04  0.14652220811E+04  0.10000000000E+02 0. -1.
</event>
<event>
 5    1  0.1533416E-008  0.3852573E+03  0.7957747E-01  0.3428581E+00
         13   -1    0    0    0    0  0.00000000000E+00  0.00000000000E+00  0.14999999963E+04  0.15000000000E+04  0.10566000000E+00 0. -1.
        994   -1    0    0    0    0 -0.00000000000E+00 -0.00000000000E+00  0.11368683772E-12  0.17120000000E+03  0.17120000000E+03 0.  0.
         13    1    1    2    0    0  0.54195797474E+01  0.92173494881E+01  0.39682589665E+02  0.41098059112E+02  0.10566000000E+00 0. -1.
        994    1    1    2    0    0  0.26968725488E+01 -0.49969600852E+00  0.15271453998E+01  0.17122877968E+03  0.17120000000E+03 0.  0.
        998    1    1    2    0    0 -0.81164522962E+01 -0.87176534796E+01  0.14587902612E+04  0.14588731612E+04  0.10000000000E+02 0. -1.
</event>
<event>
 5    1  0.1533416E-008  0.3859617E+03  0.7957747E-01  0.3425604E+00
         13   -1    0    0    0    0  0.00000000000E+00  0.00000000000E+00  0.14999999963E+04  0.15000000000E+04  0.10566000000E+00 0. -1.
        994   -1    0    0    0    0 -0.00000000000E+00 -0.00000000000E+00  0.11368683772E-12  0.17120000000E+03  0.17120000000E+03 0.  0.
         13    1    1    2    0    0  0.11605069905E+02 -0.38080600123E+01  0.63555956344E+02  0.64719005859E+02  0.10566000000E+00 0. -1.
        994    1    1    2    0    0 -0.12137544993E+02  0.15252958570E+01  0.16441784094E+01  0.17164437028E+03  0.17120000000E+03 0.  0.
        998    1    1    2    0    0  0.53247508765E+00  0.22827641554E+01  0.14347998615E+04  0.14348366239E+04  0.10000000000E+02 0. -1.
</event>
<event>
 5    1  0.1533416E-008  0.3771219E+03  0.7957747E-01  0.3463787E+00
         13   -1    0    0    0    0  0.00000000000E+00  0.00000000000E+00  0.14999999963E+04  0.15000000000E+04  0.10566000000E+00 0.  1.
        994   -1    0    0    0    0 -0.00000000000E+00 -0.00000000000E+00  0.11368683772E-12  0.17120000000E+03  0.17120000000E+03 0.  0.
         13    1    1    2    0    0  0.24495937533E+02 -0.58457839667E+02  0.25548458519E+03  0.26322947101E+03  0.10566000000E+00 0.  1.
        994    1    1    2    0    0 -0.36965559317E+02  0.75126715880E+02  0.29632144601E+02  0.19286777856E+03  0.17120000000E+03 0.  0.
        998    1    1    2    0    0  0.12469621784E+02 -0.16668876213E+02  0.12148832665E+04  0.12151027504E+04  0.10000000000E+02 0.  1.
</event>
<event>
 5    1  0.1533416E-008  0.3827596E+03  0.7957747E-01  0.3439230E+00
         13   -1    0    0    0    0  0.00000000000E+00  0.00000000000E+00  0.14999999963E+04  0.15000000000E+04  0.10566000000E+00 0.  1.
        994   -1    0    0    0    0 -0.00000000000E+00 -0.00000000000E+00  0.11368683772E-12  0.17120000000E+03  0.17120000000E+03 0.  0.
         13    1    1    2    0    0 -0.17314376445E+02 -0.16625184210E+02  0.10759753914E+03  0.11024257787E+03  0.10566000000E+00 0.  1.
        994    1    1    2    0    0  0.11913994759E+02  0.15312540279E+01  0.32246963694E+01  0.17165117732E+03  0.17120000000E+03 0.  0.
        998    1    1    2    0    0  0.54003816863E+01  0.15093930182E+02  0.13891777608E+04  0.13893062448E+04  0.10000000000E+02 0.  1.
</event>
<event>
 5    1  0.1533416E-008  0.3851332E+03  0.7957747E-01  0.3429107E+00
         13   -1    0    0    0    0  0.00000000000E+00  0.00000000000E+00  0.14999999963E+04  0.15000000000E+04  0.10566000000E+00 0. -1.
        994   -1    0    0    0    0 -0.00000000000E+00 -0.00000000000E+00  0.11368683772E-12  0.17120000000E+03  0.17120000000E+03 0.  0.
         13    1    1    2    0    0 -0.10949323574E+02 -0.61245637081E+01  0.49313876613E+02  0.50884846054E+02  0.10566000000E+00 0. -1.
        994    1    1    2    0    0  0.10817287223E+02  0.52962107186E+01  0.20410028782E+01  0.17163527972E+03  0.17120000000E+03 0.  0.
        998    1    1    2    0    0  0.13203635062E+00  0.82835298950E+00  0.14486451168E+04  0.14486798742E+04  0.10000000000E+02 0.  0.
</event>
<event>
 5    1  0.1533416E-008  0.3845494E+03  0.7957747E-01  0.3431585E+00
         13   -1    0    0    0    0  0.00000000000E+00  0.00000000000E+00  0.14999999963E+04  0.15000000000E+04  0.10566000000E+00 0.  1.
        994   -1    0    0    0    0 -0.00000000000E+00 -0.00000000000E+00  0.11368683772E-12  0.17120000000E+03  0.17120000000E+03 0.  0.
         13    1    1    2    0    0 -0.90379100387E+01 -0.59270813389E+01  0.32639327540E+02  0.34382422506E+02  0.10566000000E+00 0.  1.
        994    1    1    2    0    0 -0.41608697597E+01 -0.29094408469E+00  0.19113051814E+01  0.17126146844E+03  0.17120000000E+03 0.  0.
        998    1    1    2    0    0  0.13198779798E+02  0.62180254236E+01  0.14654493636E+04  0.14655561091E+04  0.10000000000E+02 0.  1.
</event>
<event>
 5    1  0.1533416E-008  0.4008155E+03  0.7957747E-01  0.3365246E+00
         13   -1    0    0    0    0  0.00000000000E+00  0.00000000000E+00  0.14999999963E+04  0.15000000000E+04  0.10566000000E+00 0.  1.
        994   -1    0    0    0    0 -0.00000000000E+00 -0.00000000000E+00  0.11368683772E-12  0.17120000000E+03  0.17120000000E+03 0.  0.
         13    1    1    2    0    0  0.14108580272E+02  0.13322973192E+02 -0.79901405066E+01  0.20985880047E+02  0.10566000000E+00 0.  1.
        994    1    1    2    0    0 -0.10678622560E+03 -0.84596959343E+02  0.10563287826E+03  0.24295614517E+03  0.17120000000E+03 0.  0.
        998    1    1    2    0    0  0.92677645324E+02  0.71273986151E+02  0.14023572585E+04  0.14072579748E+04  0.10000000000E+02 0.  1.
</event>
<event>
 5    1  0.1533416E-008  0.3850965E+03  0.7957747E-01  0.3429263E+00
         13   -1    0    0    0    0  0.00000000000E+00  0.00000000000E+00  0.14999999963E+04  0.15000000000E+04  0.10566000000E+00 0. -1.
        994   -1    0    0    0    0 -0.00000000000E+00 -0.00000000000E+00  0.11368683772E-12  0.17120000000E+03  0.17120000000E+03 0.  0.
         13    1    1    2    0    0  0.12736030590E+02 -0.64032309662E+00  0.50601793045E+02  0.52183992874E+02  0.10566000000E+00 0. -1.
        994    1    1    2    0    0 -0.11635334327E+02 -0.64674989017E+01  0.21650361410E+01  0.17173041935E+03  0.17120000000E+03 0.  0.
        998    1    1    2    0    0 -0.11006962629E+01  0.71078219983E+01  0.14472331671E+04  0.14472855878E+04  0.10000000000E+02 0. -1.
</event>
<event>
 5    1  0.1533416E-008  0.3768487E+03  0.7957747E-01  0.3464996E+00
         13   -1    0    0    0    0  0.00000000000E+00  0.00000000000E+00  0.14999999963E+04  0.15000000000E+04  0.10566000000E+00 0.  1.
        994   -1    0    0    0    0 -0.00000000000E+00 -0.00000000000E+00  0.11368683772E-12  0.17120000000E+03  0.17120000000E+03 0.  0.
         13    1    1    2    0    0 -0.22264752606E+02  0.23325182097E+02  0.96093931416E+02  0.10135994351E+03  0.10566000000E+00 0.  1.
        994    1    1    2    0    0 -0.10312066574E+01 -0.32146154256E+01  0.57709362055E+01  0.17133050179E+03  0.17120000000E+03 0.  0.
        998    1    1    2    0    0  0.23295959263E+02 -0.20110566671E+02  0.13981351287E+04  0.13985095547E+04  0.10000000000E+02 0.  1.
</event>
<event>
 5    1  0.1533416E-008  0.2755476E+03  0.7957747E-01  0.4087697E+00
         13   -1    0    0    0    0  0.00000000000E+00  0.00000000000E+00  0.14999999963E+04  0.15000000000E+04  0.10566000000E+00 0. -1.
        994   -1    0    0    0    0 -0.00000000000E+00 -0.00000000000E+00  0.11368683772E-12  0.17120000000E+03  0.17120000000E+03 0.  0.
         13    1    1    2    0    0  0.19926448095E+02 -0.11960031974E+03  0.67054941324E+03  0.68142338276E+03  0.10566000000E+00 0. -1.
        994    1    1    2    0    0 -0.19448572851E+02  0.10617039761E+02  0.20940997585E+02  0.17389345560E+03  0.17120000000E+03 0.  0.
        998    1    1    2    0    0 -0.47787524433E+00  0.10898327998E+03  0.80850958545E+03  0.81588316164E+03  0.10000000000E+02 0. -1.
</event>
<event>
 5    1  0.1533416E-008  0.3688927E+03  0.7957747E-01  0.3500996E+00
         13   -1    0    0    0    0  0.00000000000E+00  0.00000000000E+00  0.14999999963E+04  0.15000000000E+04  0.10566000000E+00 0.  1.
        994   -1    0    0    0    0 -0.00000000000E+00 -0.00000000000E+00  0.11368683772E-12  0.17120000000E+03  0.17120000000E+03 0.  0.
         13    1    1    2    0    0  0.15628052305E+02  0.12523003201E+03  0.49245986789E+03  0.50837341550E+03  0.10566000000E+00 0.  1.
        994    1    1    2    0    0 -0.18112917926E+02 -0.12506087476E+03  0.68225924678E+02  0.22345585020E+03  0.17120000000E+03 0.  0.
        998    1    1    2    0    0  0.24848656211E+01 -0.16915724756E+00  0.93931420371E+03  0.93937073430E+03  0.10000000000E+02 0.  0.
</event>
<event>
 5    1  0.1533416E-008  0.3705112E+03  0.7957747E-01  0.3493545E+00
         13   -1    0    0    0    0  0.00000000000E+00  0.00000000000E+00  0.14999999963E+04  0.15000000000E+04  0.10566000000E+00 0.  1.
        994   -1    0    0    0    0 -0.00000000000E+00 -0.00000000000E+00  0.11368683772E-12  0.17120000000E+03  0.17120000000E+03 0.  0.
         13    1    1    2    0    0  0.15453341954E+02  0.60616365123E+02  0.19241491257E+03  0.20232809800E+03  0.10566000000E+00 0.  1.
        994    1    1    2    0    0 -0.13539899479E+02 -0.56305496491E+02  0.20667905530E+02  0.18190722947E+03  0.17120000000E+03 0.  0.
        998    1    1    2    0    0 -0.19134424752E+01 -0.43108686321E+01  0.12869171782E+04  0.12869646725E+04  0.10000000000E+02 0.  1.
</event>
<event>
 5    1  0.1788672E-008  0.3850299E+03  0.7957747E-01  0.3429546E+00
         13   -1    0    0    0    0  0.00000000000E+00  0.00000000000E+00  0.14999999963E+04  0.15000000000E+04  0.10566000000E+00 0. -1.
        994   -1    0    0    0    0 -0.00000000000E+00 -0.00000000000E+00  0.11368683772E-12  0.17120000000E+03  0.17120000000E+03 0.  0.
         13    1    1    2    0    0  0.42580800426E+01  0.10109987959E+02  0.37831241881E+02  0.39389809957E+02  0.10566000000E+00 0. -1.
        994    1    1    2    0    0  0.33865332679E+01 -0.52567315492E+01  0.17439088109E+01  0.17132303713E+03  0.17120000000E+03 0.  0.
        998    1    1    2    0    0 -0.76446133105E+01 -0.48532564096E+01  0.14604248456E+04  0.14604871529E+04  0.10000000000E+02 0. -1.
</event>
<event>
 5    1  0.1533416E-008  0.3793649E+03  0.7957747E-01  0.3453929E+00
         13   -1    0    0    0    0  0.00000000000E+00  0.00000000000E+00  0.14999999963E+04  0.15000000000E+04  0.10566000000E+00 0.  1.
        994   -1    0    0    0    0 -0.00000000000E+00 -0.00000000000E+00  0.11368683772E-12  0.17120000000E+03  0.17120000000E+03 0.  0.
         13    1    1    2    0    0  0.27551963404E+02  0.18370061289E+02  0.12284093806E+03  0.12722608642E+03  0.10566000000E+00 0.  1.
        994    1    1    2    0    0 -0.98376047860E+01 -0.17632852809E+02  0.58210501024E+01  0.17248484163E+03  0.17120000000E+03 0.  0.
        998    1    1    2    0    0 -0.17714358618E+02 -0.73720847916E+00  0.13713380081E+04  0.13714890720E+04  0.10000000000E+02 0.  1.
</event>
<event>
 5    1  0.1533416E-008  0.3744340E+03  0.7957747E-01  0.3475758E+00
         13   -1    0    0    0    0  0.00000000000E+00  0.00000000000E+00  0.14999999963E+04  0.15000000000E+04  0.10566000000E+00 0.  1.
        994   -1    0    0    0    0 -0.00000000000E+00 -0.00000000000E+00  0.11368683772E-12  0.17120000000E+03  0.17120000000E+03 0.  0.
         13    1    1    2    0    0  0.25471059735E+02  0.14645899292E+02  0.63619013940E+02  0.70076153924E+02  0.10566000000E+00 0.  1.
        994    1    1    2    0    0  0.63704860551E+01 -0.77938092953E+01  0.73148348315E+01  0.17165160461E+03  0.17120000000E+03 0.  0.
        998    1    1    2    0    0 -0.31841545790E+02 -0.68520899964E+01  0.14290661475E+04  0.14294722415E+04  0.10000000000E+02 0.  1.
</event>
<event>
 5    1  0.1533416E-008  0.3860805E+03  0.7957747E-01  0.3425103E+00
         13   -1    0    0    0    0  0.00000000000E+00  0.00000000000E+00  0.14999999963E+04  0.15000000000E+04  0.10566000000E+00 0. -1.
        994   -1    0    0    0    0 -0.00000000000E+00 -0.00000000000E+00  0.11368683772E-12  0.17120000000E+03  0.17120000000E+03 0.  0.
         13    1    1    2    0    0 -0.68864151792E+01 -0.11866043760E+02  0.77313337257E+02  0.78521264575E+02  0.10566000000E+00 0. -1.
        994    1    1    2    0    0  0.15439851972E+02  0.18254513010E+02  0.29701737956E+01  0.17288689426E+03  0.17120000000E+03 0.  0.
        998    1    1    2    0    0 -0.85534367925E+01 -0.63884692505E+01  0.14197164852E+04  0.14197918412E+04  0.10000000000E+02 0. -1.
</event>
<event>
 5    1  0.1533416E-008  0.3812054E+03  0.7957747E-01  0.3445926E+00
         13   -1    0    0    0    0  0.00000000000E+00  0.00000000000E+00  0.14999999963E+04  0.15000000000E+04  0.10566000000E+00 0. -1.
        994   -1    0    0    0    0 -0.00000000000E+00 -0.00000000000E+00  0.11368683772E-12  0.17120000000E+03  0.17120000000E+03 0.  0.
         13    1    1    2    0    0 -0.42887321752E+02  0.21032314484E+02  0.25070113789E+03  0.25521119161E+03  0.10566000000E+00 0. -1.
        994    1    1    2    0    0  0.41864500120E+02 -0.44588234978E+02  0.16083094629E+02  0.18250713137E+03  0.17120000000E+03 0.  0.
        998    1    1    2    0    0  0.10228216328E+01  0.23555920494E+02  0.12332157638E+04  0.12334816770E+04  0.10000000000E+02 0. -1.
</event>
<event>
 5    1  0.1533416E-008  0.3851863E+03  0.7957747E-01  0.3428882E+00
         13   -1    0    0    0    0  0.00000000000E+00  0.00000000000E+00  0.14999999963E+04  0.15000000000E+04  0.10566000000E+00 0.  1.
        994   -1    0    0    0    0 -0.00000000000E+00 -0.00000000000E+00  0.11368683772E-12  0.17120000000E+03  0.17120000000E+03 0.  0.
         13    1    1    2    0    0 -0.87747642006E+01 -0.93390494225E+01  0.58633135297E+02  0.60017247935E+02  0.10566000000E+00 0.  1.
        994    1    1    2    0    0 -0.12950613124E+02  0.40125355361E+01  0.21420388019E+01  0.17174937308E+03  0.17120000000E+03 0.  0.
        998    1    1    2    0    0  0.21725377324E+02  0.53265138864E+01  0.14392248222E+04  0.14394333790E+04  0.10000000000E+02 0.  1.
</event>
<event>
 5    1  0.1533416E-008  0.3798541E+03  0.7957747E-01  0.3451794E+00
         13   -1    0    0    0    0  0.00000000000E+00  0.00000000000E+00  0.14999999963E+04  0.15000000000E+04  0.10566000000E+00 0. -1.
        994   -1    0    0    0    0 -0.00000000000E+00 -0.00000000000E+00  0.11368683772E-12  0.17120000000E+03  0.17120000000E+03 0.  0.
         13    1    1    2    0    0  0.11165089303E+02 -0.35955420182E+02  0.14613177969E+03  0.15090380929E+03  0.10566000000E+00 0. -1.
        994    1    1    2    0    0 -0.35700526971E+02  0.35716809623E+02  0.12783684561E+02  0.17894993911E+03  0.17120000000E+03 0.  0.
        998    1    1    2    0    0  0.24535437667E+02  0.23861055953E+00  0.13410845320E+04  0.13413462516E+04  0.10000000000E+02 0. -1.
</event>
<event>
 5    1  0.1533416E-008  0.3795365E+03  0.7957747E-01  0.3453179E+00
         13   -1    0    0    0    0  0.00000000000E+00  0.00000000000E+00  0.14999999963E+04  0.15000000000E+04  0.10566000000E+00 0.  1.
        994   -1    0    0    0    0 -0.00000000000E+00 -0.00000000000E+00  0.11368683772E-12  0.17120000000E+03  0.17120000000E+03 0.  0.
         13    1    1    2    0    0  0.73457755988E+01 -0.36014709178E+02  0.14588706158E+03  0.15044622161E+03  0.10566000000E+00 0.  1.
        994    1    1    2    0    0  0.29730965515E+01  0.31008289203E+02  0.76229231392E+01  0.17417778923E+03  0.17120000000E+03 0.  0.
        998    1    1    2    0    0 -0.10318872150E+02  0.50064199755E+01  0.13464900116E+04  0.13465759892E+04  0.10000000000E+02 0.  1.
</event>
<event>
 5    1  0.1533416E-008  0.3791413E+03  0.7957747E-01  0.3454906E+00
         13   -1    0    0    0    0  0.00000000000E+00  0.00000000000E+00  0.14999999963E+04  0.15000000000E+04  0.10566000000E+00 0. -1.
        994   -1    0    0    0    0 -0.00000000000E+00 -0.00000000000E+00  0.11368683772E-12  0.17120000000E+03  0.17120000000E+03 0.  0.
         13    1    1    2    0    0  0.10476999109E+01  0.17868830788E+02  0.33221752455E+02  0.37737100963E+02  0.10566000000E+00 0. -1.
        994    1    1    2    0    0  0.92056348318E+01 -0.13009555292E+02  0.54191855816E+01  0.17202557895E+03  0.17120000000E+03 0.  0.
        998    1    1    2    0    0 -0.10253334743E+02 -0.48592754955E+01  0.14613590582E+04  0.14614373201E+04  0.10000000000E+02 0. -1.
</event>
<event>
 5    1  0.1533416E-008  0.3785176E+03  0.7957747E-01  0.3457639E+00
         13   -1    0    0    0    0  0.00000000000E+00  0.00000000000E+00  0.14999999963E+04  0.15000000000E+04  0.10566000000E+00 0. -1.
        994   -1    0    0    0    0 -0.00000000000E+00 -0.00000000000E+00  0.11368683772E-12  0.17120000000E+03  0.17120000000E+03 0.  0.
         13    1    1    2    0    0 -0.42302706152E+02  0.52829832164E+02  0.21686359298E+03  0.22717909068E+03  0.10566000000E+00 0. -1.
        994    1    1    2    0    0 -0.95369326865E+02 -0.21181902515E+02  0.50772371169E+02  0.20354669041E+03  0.17120000000E+03 0.  0.
        998    1    1    2    0    0  0.13767203302E+03 -0.31647929649E+02  0.12323640321E+04  0.12404742189E+04  0.10000000000E+02 0. -1.
</event>
<event>
 5    1  0.1533416E-008  0.3733190E+03  0.7957747E-01  0.3480775E+00
         13   -1    0    0    0    0  0.00000000000E+00  0.00000000000E+00  0.14999999963E+04  0.15000000000E+04  0.10566000000E+00 0. -1.
        994   -1    0    0    0    0 -0.00000000000E+00 -0.00000000000E+00  0.11368683772E-12  0.17120000000E+03  0.17120000000E+03 0.  0.
         13    1    1    2    0    0  0.57021459664E+01 -0.27069653697E+02  0.24513576271E+02  0.36962240267E+02  0.10566000000E+00 0. -1.
        994    1    1    2    0    0 -0.87645400656E+01  0.24945389482E+02  0.15181305725E+02  0.17389365044E+03  0.17120000000E+03 0.  0.
        998    1    1    2    0    0  0.30623940992E+01  0.21242642146E+01  0.14603051143E+04  0.14603441093E+04  0.10000000000E+02 0. -1.
</event>
<event>
 5    1  0.1533416E-008  0.3712197E+03  0.7957747E-01  0.3490304E+00
         13   -1    0    0    0    0  0.00000000000E+00  0.00000000000E+00  0.14999999963E+04  0.15000000000E+04  0.10566000000E+00 0.  1.
        994   -1    0    0    0    0 -0.00000000000E+00 -0.00000000000E+00  0.11368683772E-12  0.17120000000E+03  0.17120000000E+03 0.  0.
         13    1    1    2    0    0 -0.81507035516E+02  0.22380699717E+02  0.25220171982E+03  0.26598874263E+03  0.10566000000E+00 0.  1.
        994    1    1    2    0    0  0.82367895587E+02 -0.20444022972E+02  0.37321666730E+02  0.19469148699E+03  0.17120000000E+03 0.  0.
        998    1    1    2    0    0 -0.86086007086E+00 -0.19366767449E+01  0.12104766097E+04  0.12105197704E+04  0.10000000000E+02 0.  1.
</event>
<event>
 5    1  0.1533416E-008  0.3853536E+03  0.7957747E-01  0.3428174E+00
         13   -1    0    0    0    0  0.00000000000E+00  0.00000000000E+00  0.14999999963E+04  0.15000000000E+04  0.10566000000E+00 0. -1.
        994   -1    0    0    0    0 -0.00000000000E+00 -0.00000000000E+00  0.11368683772E-12  0.17120000000E+03  0.17120000000E+03 0.  0.
         13    1    1    2    0    0 -0.11060483521E+02 -0.60813681586E+01  0.52078427473E+02  0.53586295883E+02  0.10566000000E+00 0. -1.
        994    1    1    2    0    0  0.17241840698E+02  0.47693243263E+01  0.25066414558E+01  0.17215037257E+03  0.17120000000E+03 0.  0.
        998    1    1    2    0    0 -0.61813571772E+01  0.13120438323E+01  0.14454149274E+04  0.14454633315E+04  0.10000000000E+02 0. -1.
</event>
<event>
 5    1  0.1533416E-008  0.3837538E+03  0.7957747E-01  0.3434975E+00
         13   -1    0    0    0    0  0.00000000000E+00  0.00000000000E+00  0.14999999963E+04  0.15000000000E+04  0.10566000000E+00 0.  1.
        994   -1    0    0    0    0 -0.00000000000E+00 -0.00000000000E+00  0.11368683772E-12  0.17120000000E+03  0.17120000000E+03 0.  0.
         13    1    1    2    0    0  0.13479576374E+02  0.78552836143E+00  0.38166503786E+02  0.40484678698E+02  0.10566000000E+00 0.  1.
        994    1    1    2    0    0 -0.19703249164E+02  0.14483237249E+01  0.35399727047E+01  0.17237252413E+03  0.17120000000E+03 0.  0.
        998    1    1    2    0    0  0.62236727895E+01 -0.22338520864E+01  0.14582935198E+04  0.14583427972E+04  0.10000000000E+02 0.  1.
</event>
<event>
 5    1  0.1533416E-008  0.3739267E+03  0.7957747E-01  0.3478037E+00
         13   -1    0    0    0    0  0.00000000000E+00  0.00000000000E+00  0.14999999963E+04  0.15000000000E+04  0.10566000000E+00 0.  1.
        994   -1    0    0    0    0 -0.00000000000E+00 -0.00000000000E+00  0.11368683772E-12  0.17120000000E+03  0.17120000000E+03 0.  0.
         13    1    1    2    0    0  0.49695260874E+01  0.30145384417E+02  0.60491757923E+02  0.67769494109E+02  0.10566000000E+00 0.  1.
        994    1    1    2    0    0 -0.31283882075E+01 -0.26074024307E+02  0.95872474365E+01  0.17346756720E+03  0.17120000000E+03 0.  0.
        998    1    1    2    0    0 -0.18411378799E+01 -0.40713601099E+01  0.14299209909E+04  0.14299629387E+04  0.10000000000E+02 0.  1.
</event>
<event>
 5    1  0.1533416E-008  0.3828346E+03  0.7957747E-01  0.3438908E+00
         13   -1    0    0    0    0  0.00000000000E+00  0.00000000000E+00  0.14999999963E+04  0.15000000000E+04  0.10566000000E+00 0.  1.
        994   -1    0    0    0    0 -0.00000000000E+00 -0.00000000000E+00  0.11368683772E-12  0.17120000000E+03  0.17120000000E+03 0.  0.
         13    1    1    2    0    0  0.53300824093E+01 -0.11491164324E+02  0.28246510802E+02  0.30956956771E+02  0.10566000000E+00 0.  1.
        994    1    1    2    0    0 -0.25035751468E+01  0.13115186057E+02  0.32996856538E+01  0.17175157618E+03  0.17120000000E+03 0.  0.
        998    1    1    2    0    0 -0.28265072626E+01 -0.16240217333E+01  0.14684537998E+04  0.14684914671E+04  0.10000000000E+02 0.  1.
</event>
<event>
 5    1  0.1533416E-008  0.3803125E+03  0.7957747E-01  0.3449799E+00
         13   -1    0    0    0    0  0.00000000000E+00  0.00000000000E+00  0.14999999963E+04  0.15000000000E+04  0.10566000000E+00 0.  1.
        994   -1    0    0    0    0 -0.00000000000E+00 -0.00000000000E+00  0.11368683772E-12  0.17120000000E+03  0.17120000000E+03 0.  0.
         13    1    1    2    0    0 -0.27868404768E+02 -0.12369928357E+02  0.10737424388E+03  0.11161945406E+03  0.10566000000E+00 0.  1.
        994    1    1    2    0    0  0.29311252075E+02  0.13038678064E+02  0.74199688200E+01  0.17433775426E+03  0.17120000000E+03 0.  0.
        998    1    1    2    0    0 -0.14428473067E+01 -0.66874970712E+00  0.13852057836E+04  0.13852427917E+04  0.10000000000E+02 0.  1.
</event>
<event>
 5    1  0.1533416E-008  0.3824444E+03  0.7957747E-01  0.3440584E+00
         13   -1    0    0    0    0  0.00000000000E+00  0.00000000000E+00  0.14999999963E+04  0.15000000000E+04  0.10566000000E+00 0. -1.
        994   -1    0    0    0    0 -0.00000000000E+00 -0.00000000000E+00  0.11368683772E-12  0.17120000000E+03  0.17120000000E+03 0.  0.
         13    1    1    2    0    0 -0.23800445699E+03  0.59318316198E+01  0.11282991152E+04  0.11531436219E+04  0.10566000000E+00 0. -1.
        994    1    1    2    0    0  0.24043053404E+03  0.78095271406E+01  0.22724052422E+03  0.37257955696E+03  0.17120000000E+03 0.  0.
        998    1    1    2    0    0 -0.24260770504E+01 -0.13741358760E+02  0.14446035684E+03  0.14547682114E+03  0.10000000000E+02 0.  1.
</event>
<event>
 5    1  0.1533416E-008  0.2947415E+03  0.7957747E-01  0.3934290E+00
         13   -1    0    0    0    0  0.00000000000E+00  0.00000000000E+00  0.14999999963E+04  0.15000000000E+04  0.10566000000E+00 0. -1.
        994   -1    0    0    0    0 -0.00000000000E+00 -0.00000000000E+00  0.11368683772E-12  0.17120000000E+03  0.17120000000E+03 0.  0.
         13    1    1    2    0    0 -0.18946836687E+03 -0.17762144452E+01  0.91499890615E+03  0.93441127262E+03  0.10566000000E+00 0. -1.
        994    1    1    2    0    0  0.37127230415E+02  0.43078806870E+02  0.62568229993E+02  0.19094092868E+03  0.17120000000E+03 0.  0.
        998    1    1    2    0    0  0.15234113646E+03 -0.41302592425E+02  0.52243286013E+03  0.54584779870E+03  0.10000000000E+02 0.  1.
</event>
<event>
 5    1  0.1533416E-008  0.3824219E+03  0.7957747E-01  0.3440681E+00
         13   -1    0    0    0    0  0.00000000000E+00  0.00000000000E+00  0.14999999963E+04  0.15000000000E+04  0.10566000000E+00 0. -1.
        994   -1    0    0    0    0 -0.00000000000E+00 -0.00000000000E+00  0.11368683772E-12  0.17120000000E+03  0.17120000000E+03 0.  0.
         13    1    1    2    0    0 -0.18834660805E+02  0.42150436994E+02  0.26085346596E+03  0.26490742846E+03  0.10566000000E+00 0. -1.
        994    1    1    2    0    0  0.28268120342E+02 -0.54925503170E+02  0.15675340416E+02  0.18267745844E+03  0.17120000000E+03 0.  0.
        998    1    1    2    0    0 -0.94334595370E+01  0.12775066176E+02  0.12234711899E+04  0.12236151131E+04  0.10000000000E+02 0. -1.
</event>
<event>
 5    1  0.1533416E-008  0.3808256E+03  0.7957747E-01  0.3447571E+00
         13   -1    0    0    0    0  0.00000000000E+00  0.00000000000E+00  0.14999999963E+04  0.15000000000E+04  0.10566000000E+00 0. -1.
        994   -1    0    0    0    0 -0.00000000000E+00 -0.00000000000E+00  0.11368683772E-12  0.17120000000E+03  0.17120000000E+03 0.  0.
         13    1    1    2    0    0  0.31186466081E+02  0.16212270015E+01  0.12973247296E+03  0.13343818700E+03  0.10566000000E+00 0. -1.
        994    1    1    2    0    0 -0.18264030536E+02 -0.29333894554E+02  0.77079449723E+01  0.17482249454E+03  0.17120000000E+03 0.  0.
        998    1    1    2    0    0 -0.12922435545E+02  0.27712667553E+02  0.13625595783E+04  0.13629393185E+04  0.10000000000E+02 0. -1.
</event>
<event>
 5    1  0.1533416E-008  0.3850147E+03  0.7957747E-01  0.3429610E+00
         13   -1    0    0    0    0  0.00000000000E+00  0.00000000000E+00  0.14999999963E+04  0.15000000000E+04  0.10566000000E+00 0. -1.
        994   -1    0    0    0    0 -0.00000000000E+00 -0.00000000000E+00  0.11368683772E-12  0.17120000000E+03  0.17120000000E+03 0.  0.
         13    1    1    2    0    0 -0.81898370610E+01 -0.10608249581E+02  0.58696665170E+02  0.60207292385E+02  0.10566000000E+00 0. -1.
        994    1    1    2    0    0  0.42872146776E+01 -0.42647179833E+01  0.17431063529E+01  0.17131563399E+03  0.17120000000E+03 0.  0.
        998    1    1    2    0    0  0.39026223834E+01  0.14872967564E+02  0.14395602248E+04  0.14396770736E+04  0.10000000000E+02 0. -1.
</event>
<event>
 5    1  0.1533416E-008  0.3824905E+03  0.7957747E-01  0.3440386E+00
         13   -1    0    0    0    0  0.00000000000E+00  0.00000000000E+00  0.14999999963E+04  0.15000000000E+04  0.10566000000E+00 0. -1.
        994   -1    0    0    0    0 -0.00000000000E+00 -0.00000000000E+00  0.11368683772E-12  0.17120000000E+03  0.17120000000E+03 0.  0.
         13    1    1    2    0    0 -0.18338135410E+02 -0.50591297033E+01  0.63988866795E+02  0.66756784235E+02  0.10566000000E+00 0. -1.
        994    1    1    2    0    0  0.60542156630E+01 -0.14236958223E+01  0.30094789730E+01  0.17133936326E+03  0.17120000000E+03 0.  0.
        998    1    1    2    0    0  0.12283919747E+02  0.64828255256E+01  0.14330016505E+04  0.14331038525E+04  0.10000000000E+02 0. -1.
</event>
<event>
 5    1  0.1533416E-008  0.3701857E+03  0.7957747E-01  0.3495038E+00
         13   -1    0    0    0    0  0.00000000000E+00  0.00000000000E+00  0.14999999963E+04  0.15000000000E+04  0.10566000000E+00 0.  1.
        994   -1    0    0    0    0 -0.00000000000E+00 -0.00000000000E+00  0.11368683772E-12  0.17120000000E+03  0.17120000000E+03 0.  0.
         13    1    1    2    0    0 -0.67367830203E+02  0.61615482966E+01  0.22121599209E+03  0.23132858783E+03  0.10566000000E+00 0.  1.
        994    1    1    2    0    0  0.59798212277E+02  0.25322588085E+01  0.21653983810E+02  0.18264877098E+03  0.17120000000E+03 0.  0.
        998    1    1    2    0    0  0.75696179253E+01 -0.86938071051E+01  0.12571300204E+04  0.12572226412E+04  0.10000000000E+02 0.  1.
</event>
<event>
 5    1  0.1533416E-008  0.3794742E+03  0.7957747E-01  0.3453451E+00
         13   -1    0    0    0    0  0.00000000000E+00  0.00000000000E+00  0.14999999963E+04  0.15000000000E+04  0.10566000000E+00 0. -1.
        994   -1    0    0    0    0 -0.00000000000E+00 -0.00000000000E+00  0.11368683772E-12  0.17120000000E+03  0.17120000000E+03 0.  0.
         13    1    1    2    0    0 -0.26840146285E+02  0.28074820456E+02  0.18635417147E+03  0.19035881220E+03  0.10566000000E+00 0. -1.
        994    1    1    2    0    0  0.23848318571E+01 -0.10848536847E+02  0.48120453530E+01  0.17162742775E+03  0.17120000000E+03 0.  0.
        998    1    1    2    0    0  0.24455314428E+02 -0.17226283609E+02  0.13088337795E+04  0.13092137601E+04  0.10000000000E+02 0. -1.
</event>
<event>
 5    1  0.1533416E-008  0.3858638E+03  0.7957747E-01  0.3426017E+00
         13   -1    0    0    0    0  0.00000000000E+00  0.00000000000E+00  0.14999999963E+04  0.15000000000E+04  0.10566000000E+00 0.  1.
        994   -1    0    0    0    0 -0.00000000000E+00 -0.00000000000E+00  0.11368683772E-12  0.17120000000E+03  0.17120000000E+03 0.  0.
         13    1    1    2    0    0 -0.52170957349E+01 -0.11875315821E+02  0.74239866978E+02  0.75364515701E+02  0.10566000000E+00 0.  1.
        994    1    1    2    0    0  0.58146179977E+01  0.40808219077E-01  0.13127807532E+01  0.17130375022E+03  0.17120000000E+03 0.  0.
        998    1    1    2    0    0 -0.59752226283E+00  0.11834507602E+02  0.14244473485E+04  0.14245317341E+04  0.10000000000E+02 0.  1.
</event>
<event>
 5    1  0.1533416E-008  0.3732682E+03  0.7957747E-01  0.3481004E+00
         13   -1    0    0    0    0  0.00000000000E+00  0.00000000000E+00  0.14999999963E+04  0.15000000000E+04  0.10566000000E+00 0. -1.
        994   -1    0    0    0    0 -0.00000000000E+00 -0.00000000000E+00  0.11368683772E-12  0.17120000000E+03  0.17120000000E+03 0.  0.
         13    1    1    2    0    0  0.15914767968E+02  0.29748700929E+02  0.40056006920E+02  0.52371365276E+02  0.10566000000E+00 0. -1.
        994    1    1    2    0    0 -0.11808334982E+02 -0.19257141241E+02  0.14484079058E+02  0.17329022710E+03  0.17120000000E+03 0.  0.
        998    1    1    2    0    0 -0.41064329866E+01 -0.10491559687E+02  0.14454599103E+04  0.14455384076E+04  0.10000000000E+02 0. -1.
</event>
<event>
 5    1  0.1533416E-008  0.3825749E+03  0.7957747E-01  0.3440023E+00
         13   -1    0    0    0    0  0.00000000000E+00  0.00000000000E+00  0.14999999963E+04  0.15000000000E+04  0.10566000000E+00 0. -1.
        994   -1    0    0    0    0 -0.00000000000E+00 -0.00000000000E+00  0.11368683772E-12  0.17120000000E+03  0.17120000000E+03 0.  0.
         13    1    1    2    0    0 -0.24018610891E+02  0.56415087445E+01  0.11191863088E+03  0.11460589597E+03  0.10566000000E+00 0. -1.
        994    1    1    2    0    0  0.59737986150E+01 -0.63034378711E+01  0.30890196472E+01  0.17144795607E+03  0.17120000000E+03 0.  0.
        998    1    1    2    0    0  0.18044812276E+02  0.66192912660E+00  0.13849923458E+04  0.13851461480E+04  0.10000000000E+02 0. -1.
</event>
<event>
 5    1  0.1533416E-008  0.3706213E+03  0.7957747E-01  0.3493041E+00
         13   -1    0    0    0    0  0.00000000000E+00  0.00000000000E+00  0.14999999963E+04  0.15000000000E+04  0.10566000000E+00 0. -1.
        994   -1    0    0    0    0 -0.00000000000E+00 -0.00000000000E+00  0.11368683772E-12  0.17120000000E+03  0.17120000000E+03 0.  0.
         13    1    1    2    0    0  0.14002812682E+02  0.32116566029E+02  0.65943106773E+02  0.74673000953E+02  0.10566000000E+00 0. -1.
        994    1    1    2    0    0 -0.18021452483E+02 -0.13580150264E+02  0.10703517058E+02  0.17301213399E+03  0.17120000000E+03 0.  0.
        998    1    1    2    0    0  0.40186398009E+01 -0.18536415765E+02  0.14233533724E+04  0.14235148651E+04  0.10000000000E+02 0. -1.
</event>
<event>
 5    1  0.1533416E-008  0.3734590E+03  0.7957747E-01  0.3480144E+00
         13   -1    0    0    0    0  0.00000000000E+00  0.00000000000E+00  0.14999999963E+04  0.15000000000E+04  0.10566000000E+00 0. -1.
        994   -1    0    0    0    0 -0.00000000000E+00 -0.00000000000E+00  0.11368683772E-12  0.17120000000E+03  0.17120000000E+03 0.  0.
         13    1    1    2    0    0  0.66347443847E+02  0.99742593078E+02  0.53219864018E+03  0.54551441040E+03  0.10566000000E+00 0. -1.
        994    1    1    2    0    0 -0.59356849624E+02 -0.11663533221E+03  0.68462378928E+02  0.22610522693E+03  0.17120000000E+03 0.  0.
        998    1    1    2    0    0 -0.69905942230E+01  0.16892739133E+02  0.89933897717E+03  0.89958036267E+03  0.10000000000E+02 0. -1.
</event>
<event>
 5    1  0.1533416E-008  0.3768561E+03  0.7957747E-01  0.3464963E+00
         13   -1    0    0    0    0  0.00000000000E+00  0.00000000000E+00  0.14999999963E+04  0.15000000000E+04  0.10566000000E+00 0.  1.
        994   -1    0    0    0    0 -0.00000000000E+00 -0.00000000000E+00  0.11368683772E-12  0.17120000000E+03  0.17120000000E+03 0.  0.
         13    1    1    2    0    0  0.16608946414E+02  0.20812486216E+02  0.59316126001E+02  0.65018694630E+02  0.10566000000E+00 0.  1.
        994    1    1    2    0    0 -0.99971015376E+01 -0.16323056177E+02  0.69672740104E+01  0.17240756106E+03  0.17120000000E+03 0.  0.
        998    1    1    2    0    0 -0.66118448760E+01 -0.44894300396E+01  0.14337165963E+04  0.14337737443E+04  0.10000000000E+02 0.  1.
</event>
<event>
 5    1  0.1533416E-008  0.3820718E+03  0.7957747E-01  0.3442187E+00
         13   -1    0    0    0    0  0.00000000000E+00  0.00000000000E+00  0.14999999963E+04  0.15000000000E+04  0.10566000000E+00 0. -1.
        994   -1    0    0    0    0 -0.00000000000E+00 -0.00000000000E+00  0.11368683772E-12  0.17120000000E+03  0.17120000000E+03 0.  0.
         13    1    1    2    0    0 -0.12823629959E+03 -0.52145734745E+02  0.55005089127E+03  0.56720342059E+03  0.10566000000E+00 0. -1.
        994    1    1    2    0    0  0.53903003260E+02  0.10181433631E+03  0.67700908569E+02  0.21717399904E+03  0.17120000000E+03 0.  0.
        998    1    1    2    0    0  0.74333296329E+02 -0.49668601561E+02  0.88224819644E+03  0.88682258037E+03  0.10000000000E+02 0. -1.
</event>
<event>
 5    1  0.1533416E-008  0.3839746E+03  0.7957747E-01  0.3434033E+00
         13   -1    0    0    0    0  0.00000000000E+00  0.00000000000E+00  0.14999999963E+04  0.15000000000E+04  0.10566000000E+00 0.  1.
        994   -1    0    0    0    0 -0.00000000000E+00 -0.00000000000E+00  0.11368683772E-12  0.17120000000E+03  0.17120000000E+03 0.  0.
         13    1    1    2    0    0  0.41716147023E+01  0.20286883617E+02  0.10322586731E+03  0.10528319363E+03  0.10566000000E+00 0.  1.
        994    1    1    2    0    0  0.73579641044E+01 -0.99997675818E+01  0.26488181624E+01  0.17167000677E+03  0.17120000000E+03 0.  0.
        998    1    1    2    0    0 -0.11529578807E+02 -0.10287116035E+02  0.13941253108E+04  0.13942467996E+04  0.10000000000E+02 0.  1.
</event>
<event>
 5    1  0.1533416E-008  0.3802474E+03  0.7957747E-01  0.3450082E+00
         13   -1    0    0    0    0  0.00000000000E+00  0.00000000000E+00  0.14999999963E+04  0.15000000000E+04  0.10566000000E+00 0. -1.
        994   -1    0    0    0    0 -0.00000000000E+00 -0.00000000000E+00  0.11368683772E-12  0.17120000000E+03  0.17120000000E+03 0.  0.
         13    1    1    2    0    0 -0.13232539711E+02 -0.28885820606E+01  0.21001713600E+02  0.24990541245E+02  0.10566000000E+00 0. -1.
        994    1    1    2    0    0  0.12588420319E+02  0.50841184988E+01  0.46242205814E+01  0.17179970897E+03  0.17120000000E+03 0.  0.
        998    1    1    2    0    0  0.64411939217E+00 -0.21955364382E+01  0.14743740621E+04  0.14744097498E+04  0.10000000000E+02 0. -1.
</event>
<event>
 5    1  0.1533416E-008  0.3856895E+03  0.7957747E-01  0.3426753E+00
         13   -1    0    0    0    0  0.00000000000E+00  0.00000000000E+00  0.14999999963E+04  0.15000000000E+04  0.10566000000E+00 0. -1.
        994   -1    0    0    0    0 -0.00000000000E+00 -0.00000000000E+00  0.11368683772E-12  0.17120000000E+03  0.17120000000E+03 0.  0.
         13    1    1    2    0    0  0.37007614166E+01  0.17926110265E+02  0.96826055900E+02  0.98541043882E+02  0.10566000000E+00 0. -1.
        994    1    1    2    0    0  0.10011505686E+02 -0.52330630665E+02  0.10658956474E+02  0.17961564104E+03  0.17120000000E+03 0.  0.
        998    1    1    2    0    0 -0.13712267103E+02  0.34404520400E+02  0.13925149839E+04  0.13930433151E+04  0.10000000000E+02 0. -1.
</event>
<event>
 5    1  0.1533416E-008  0.3756131E+03  0.7957747E-01  0.3470485E+00
         13   -1    0    0    0    0  0.00000000000E+00  0.00000000000E+00  0.14999999963E+04  0.15000000000E+04  0.10566000000E+00 0. -1.
        994   -1    0    0    0    0 -0.00000000000E+00 -0.00000000000E+00  0.11368683772E-12  0.17120000000E+03  0.17120000000E+03 0.  0.
         13    1    1    2    0    0 -0.87270949229E+02  0.28896955205E+01  0.42055455094E+03  0.42952381820E+03  0.10566000000E+00 0. -1.
        994    1    1    2    0    0  0.88616033574E+02  0.85951917200E+00  0.33488862112E+02  0.19566421253E+03  0.17120000000E+03 0.  0.
        998    1    1    2    0    0 -0.13450843453E+01 -0.37492146925E+01  0.10459565832E+04  0.10460119693E+04  0.10000000000E+02 0. -1.
</event>
<event>
 5    1  0.1533416E-008  0.3845563E+03  0.7957747E-01  0.3431556E+00
         13   -1    0    0    0    0  0.00000000000E+00  0.00000000000E+00  0.14999999963E+04  0.15000000000E+04  0.10566000000E+00 0. -1.
        994   -1    0    0    0    0 -0.00000000000E+00 -0.00000000000E+00  0.11368683772E-12  0.17120000000E+03  0.17120000000E+03 0.  0.
         13    1    1    2    0    0 -0.43186457646E+01  0.11388540408E+02  0.40933634315E+02  0.42707413128E+02  0.10566000000E+00 0. -1.
        994    1    1    2    0    0 -0.80160988559E+00 -0.26637742381E+01  0.18760774129E+01  0.17123287634E+03  0.17120000000E+03 0.  0.
        998    1    1    2    0    0  0.51202556502E+01 -0.87247661698E+01  0.14571902846E+04  0.14572597105E+04  0.10000000000E+02 0. -1.
</event>
<event>
 5    1  0.1533416E-008  0.3855068E+03  0.7957747E-01  0.3427526E+00
         13   -1    0    0    0    0  0.00000000000E+00  0.00000000000E+00  0.14999999963E+04  0.15000000000E+04  0.10566000000E+00 0.  1.
        994   -1    0    0    0    0 -0.00000000000E+00 -0.00000000000E+00  0.11368683772E-12  0.17120000000E+03  0.17120000000E+03 0.  0.
         13    1    1    2    0    0  0.14141200694E+00 -0.19566264142E+02  0.11473830312E+03  0.11639479394E+03  0.10566000000E+00 0.  1.
        994    1    1    2    0    0  0.26159654603E+01  0.34455874344E+02  0.53089541943E+01  0.17473315526E+03  0.17120000000E+03 0.  0.
        998    1    1    2    0    0 -0.27573774672E+01 -0.14889610202E+02  0.13799527390E+04  0.13800720508E+04  0.10000000000E+02 0.  1.
</event>
<event>
 5    1  0.1533416E-008  0.3862311E+03  0.7957747E-01  0.3424468E+00
         13   -1    0    0    0    0  0.00000000000E+00  0.00000000000E+00  0.14999999963E+04  0.15000000000E+04  0.10566000000E+00 0.  1.
        994   -1    0    0    0    0 -0.00000000000E+00 -0.00000000000E+00  0.11368683772E-12  0.17120000000E+03  0.17120000000E+03 0.  0.
         13    1    1    2    0    0 -0.60520934494E+01  0.88309667663E+01  0.56241021373E+02  0.57251003993E+02  0.10566000000E+00 0.  1.
        994    1    1    2    0    0 -0.68885563860E+01 -0.16272152965E+02  0.20435532106E+01  0.17212161770E+03  0.17120000000E+03 0.  0.
        998    1    1    2    0    0  0.12940649835E+02  0.74411861989E+01  0.14417154217E+04  0.14418273783E+04  0.10000000000E+02 0.  1.
</event>
<event>
 5    1  0.1533416E-008  0.3846403E+03  0.7957747E-01  0.3431199E+00
         13   -1    0    0    0    0  0.00000000000E+00  0.00000000000E+00  0.14999999963E+04  0.15000000000E+04  0.10566000000E+00 0.  1.
        994   -1    0    0    0    0 -0.00000000000E+00 -0.00000000000E+00  0.11368683772E-12  0.17120000000E+03  0.17120000000E+03 0.  0.
         13    1    1    2    0    0  0.11728426407E+02 -0.12672270503E+02  0.76613223163E+02  0.78534957523E+02  0.10566000000E+00 0.  1.
        994    1    1    2    0    0 -0.15665837195E+02  0.15733005445E+02  0.34335169609E+01  0.17266781679E+03  0.17120000000E+03 0.  0.
        998    1    1    2    0    0  0.39374107883E+01 -0.30607349421E+01  0.14199532562E+04  0.14199972257E+04  0.10000000000E+02 0.  1.
</event>
<event>
 5    1  0.1533416E-008  0.3721365E+03  0.7957747E-01  0.3486129E+00
         13   -1    0    0    0    0  0.00000000000E+00  0.00000000000E+00  0.14999999963E+04  0.15000000000E+04  0.10566000000E+00 0. -1.
        994   -1    0    0    0    0 -0.00000000000E+00 -0.00000000000E+00  0.11368683772E-12  0.17120000000E+03  0.17120000000E+03 0.  0.
         13    1    1    2    0    0 -0.16714845959E+02 -0.13002540871E+01  0.66901343213E+01  0.18051199334E+02  0.10566000000E+00 0. -1.
        994    1    1    2    0    0 -0.14583019879E+02  0.16437821447E+01  0.12831967636E+02  0.17230631411E+03  0.17120000000E+03 0.  0.
        998    1    1    2    0    0  0.31297865838E+02 -0.34352805760E+00  0.14804778943E+04  0.14808424866E+04  0.10000000000E+02 0. -1.
</event>
<event>
 5    1  0.1533416E-008  0.3852085E+03  0.7957747E-01  0.3428788E+00
         13   -1    0    0    0    0  0.00000000000E+00  0.00000000000E+00  0.14999999963E+04  0.15000000000E+04  0.10566000000E+00 0.  1.
        994   -1    0    0    0    0 -0.00000000000E+00 -0.00000000000E+00  0.11368683772E-12  0.17120000000E+03  0.17120000000E+03 0.  0.
         13    1    1    2    0    0  0.15484551901E+02 -0.73149743817E+00  0.86599862834E+02  0.87976439136E+02  0.10566000000E+00 0.  1.
        994    1    1    2    0    0  0.21866377849E+01  0.28117280249E+01  0.15683347425E+01  0.17124423165E+03  0.17120000000E+03 0.  0.
        998    1    1    2    0    0 -0.17671189686E+02 -0.20802305867E+01  0.14118317987E+04  0.14119793292E+04  0.10000000000E+02 0.  1.
</event>
<event>
 5    1  0.1533416E-008  0.3777017E+03  0.7957747E-01  0.3461227E+00
         13   -1    0    0    0    0  0.00000000000E+00  0.00000000000E+00  0.14999999963E+04  0.15000000000E+04  0.10566000000E+00 0. -1.
        994   -1    0    0    0    0 -0.00000000000E+00 -0.00000000000E+00  0.11368683772E-12  0.17120000000E+03  0.17120000000E+03 0.  0.
         13    1    1    2    0    0  0.61794964833E+01 -0.46032382471E+02  0.25852639791E+03  0.26266533078E+03  0.10566000000E+00 0. -1.
        994    1    1    2    0    0 -0.67803099833E+01 -0.52051757650E+01  0.55440023914E+01  0.17150289333E+03  0.17120000000E+03 0.  0.
        998    1    1    2    0    0  0.60081349994E+00  0.51237558236E+02  0.12359295960E+04  0.12370317759E+04  0.10000000000E+02 0. -1.
</event>
<event>
 5    1  0.1533416E-008  0.3709943E+03  0.7957747E-01  0.3491334E+00
         13   -1    0    0    0    0  0.00000000000E+00  0.00000000000E+00  0.14999999963E+04  0.15000000000E+04  0.10566000000E+00 0.  1.
        994   -1    0    0    0    0 -0.00000000000E+00 -0.00000000000E+00  0.11368683772E-12  0.17120000000E+03  0.17120000000E+03 0.  0.
         13    1    1    2    0    0  0.28505475696E+02  0.48175102795E+01  0.31304720587E+02  0.42611820485E+02  0.10566000000E+00 0.  1.
        994    1    1    2    0    0 -0.26917754864E+02 -0.22096087139E+01  0.14028816135E+02  0.17388414413E+03  0.17120000000E+03 0.  0.
        998    1    1    2    0    0 -0.15877208323E+01 -0.26079015657E+01  0.14546664596E+04  0.14547040354E+04  0.10000000000E+02 0.  1.
</event>
<event>
 5    1  0.1533416E-008  0.3789983E+03  0.7957747E-01  0.3455532E+00
         13   -1    0    0    0    0  0.00000000000E+00  0.00000000000E+00  0.14999999963E+04  0.15000000000E+04  0.10566000000E+00 0.  1.
        994   -1    0    0    0    0 -0.00000000000E+00 -0.00000000000E+00  0.11368683772E-12  0.17120000000E+03  0.17120000000E+03 0.  0.
         13    1    1    2    0    0  0.18122880352E+02 -0.20755064260E+02  0.87069306705E+02  0.91325170784E+02  0.10566000000E+00 0.  1.
        994    1    1    2    0    0  0.65036362471E+01  0.46517302027E+01  0.48541162883E+01  0.17145535373E+03  0.17120000000E+03 0.  0.
        998    1    1    2    0    0 -0.24626516599E+02  0.16103334057E+02  0.14080765733E+04  0.14084194755E+04  0.10000000000E+02 0.  1.
</event>
<event>
 5    1  0.1533416E-008  0.3697828E+03  0.7957747E-01  0.3496890E+00
         13   -1    0    0    0    0  0.00000000000E+00  0.00000000000E+00  0.14999999963E+04  0.15000000000E+04  0.10566000000E+00 0. -1.
        994   -1    0    0    0    0 -0.00000000000E+00 -0.00000000000E+00  0.11368683772E-12  0.17120000000E+03  0.17120000000E+03 0.  0.
         13    1    1    2    0    0  0.19836503062E+03  0.11329309684E+03  0.11666981771E+04  0.11888518237E+04  0.10566000000E+00 0. -1.
        994    1    1    2    0    0 -0.17931720532E+03 -0.13071358779E+03  0.19531247272E+03  0.34160957855E+03  0.17120000000E+03 0.  0.
        998    1    1    2    0    0 -0.19047825303E+02  0.17420490955E+02  0.13798934645E+03  0.14073859772E+03  0.10000000000E+02 0.  1.
</event>
<event>
 5    1  0.1533416E-008  0.3833309E+03  0.7957747E-01  0.3436782E+00
         13   -1    0    0    0    0  0.00000000000E+00  0.00000000000E+00  0.14999999963E+04  0.15000000000E+04  0.10566000000E+00 0.  1.
        994   -1    0    0    0    0 -0.00000000000E+00 -0.00000000000E+00  0.11368683772E-12  0.17120000000E+03  0.17120000000E+03 0.  0.
         13    1    1    2    0    0 -0.17127900915E+02  0.21541702290E+02  0.14882430905E+03  0.15134760009E+03  0.10566000000E+00 0.  1.
        994    1    1    2    0    0  0.16224253845E+02 -0.12858478480E+02  0.38794256833E+01  0.17249074417E+03  0.17120000000E+03 0.  0.
        998    1    1    2    0    0  0.90364706921E+00 -0.86832238099E+01  0.13472962615E+04  0.13473616557E+04  0.10000000000E+02 0.  1.
</event>
<event>
 5    1  0.1533416E-008  0.3765264E+03  0.7957747E-01  0.3466424E+00
         13   -1    0    0    0    0  0.00000000000E+00  0.00000000000E+00  0.14999999963E+04  0.15000000000E+04  0.10566000000E+00 0.  1.
        994   -1    0    0    0    0 -0.00000000000E+00 -0.00000000000E+00  0.11368683772E-12  0.17120000000E+03  0.17120000000E+03 0.  0.
         13    1    1    2    0    0  0.21440060763E+02 -0.37520132136E+02  0.14137122826E+03  0.14782852182E+03  0.10566000000E+00 0.  1.
        994    1    1    2    0    0 -0.24110023158E+02  0.37882920782E+02  0.12746638676E+02  0.17744950183E+03  0.17120000000E+03 0.  0.
        998    1    1    2    0    0  0.26699623946E+01 -0.36278864646E+00  0.13458821293E+04  0.13459219763E+04  0.10000000000E+02 0.  1.
</event>
<event>
 5    1  0.1533416E-008  0.2318787E+03  0.7957747E-01  0.4546650E+00
         13   -1    0    0    0    0  0.00000000000E+00  0.00000000000E+00  0.14999999963E+04  0.15000000000E+04  0.10566000000E+00 0.  1.
        994   -1    0    0    0    0 -0.00000000000E+00 -0.00000000000E+00  0.11368683772E-12  0.17120000000E+03  0.17120000000E+03 0.  0.
         13    1    1    2    0    0  0.91747248691E+02  0.12218431331E+03  0.20458879727E+03  0.25534907714E+03  0.10566000000E+00 0.  1.
        994    1    1    2    0    0 -0.76931983120E+02 -0.12498526926E+03  0.15120113799E+03  0.27149782999E+03  0.17120000000E+03 0.  0.
        998    1    1    2    0    0 -0.14815265571E+02  0.28009559499E+01  0.11442100610E+04  0.11443530929E+04  0.10000000000E+02 0.  1.
</event>
<event>
 5    1  0.1533416E-008  0.3807001E+03  0.7957747E-01  0.3448116E+00
         13   -1    0    0    0    0  0.00000000000E+00  0.00000000000E+00  0.14999999963E+04  0.15000000000E+04  0.10566000000E+00 0. -1.
        994   -1    0    0    0    0 -0.00000000000E+00 -0.00000000000E+00  0.11368683772E-12  0.17120000000E+03  0.17120000000E+03 0.  0.
         13    1    1    2    0    0  0.51870589012E+01 -0.12076516739E+02  0.21182196525E+02  0.24928787581E+02  0.10566000000E+00 0. -1.
        994    1    1    2    0    0 -0.75278420507E+01  0.90111861648E+01  0.42400998747E+01  0.17165456105E+03  0.17120000000E+03 0.  0.
        998    1    1    2    0    0  0.23407831495E+01  0.30653305742E+01  0.14745776999E+04  0.14746166514E+04  0.10000000000E+02 0. -1.
</event>
<event>
 5    1  0.1533416E-008  0.3735966E+03  0.7957747E-01  0.3479523E+00
         13   -1    0    0    0    0  0.00000000000E+00  0.00000000000E+00  0.14999999963E+04  0.15000000000E+04  0.10566000000E+00 0.  1.
        994   -1    0    0    0    0 -0.00000000000E+00 -0.00000000000E+00  0.11368683772E-12  0.17120000000E+03  0.17120000000E+03 0.  0.
         13    1    1    2    0    0  0.18367548611E+02 -0.17191020793E+02  0.37607486729E+02  0.45246350792E+02  0.10566000000E+00 0.  1.
        994    1    1    2    0    0 -0.29706297916E+02  0.22392965167E+02  0.12142444734E+02  0.17561545487E+03  0.17120000000E+03 0.  0.
        998    1    1    2    0    0  0.11338749305E+02 -0.52019443742E+01  0.14502500648E+04  0.14503381943E+04  0.10000000000E+02 0.  1.
</event>
<event>
 5    1  0.1533416E-008  0.3823315E+03  0.7957747E-01  0.3441069E+00
         13   -1    0    0    0    0  0.00000000000E+00  0.00000000000E+00  0.14999999963E+04  0.15000000000E+04  0.10566000000E+00 0. -1.
        994   -1    0    0    0    0 -0.00000000000E+00 -0.00000000000E+00  0.11368683772E-12  0.17120000000E+03  0.17120000000E+03 0.  0.
         13    1    1    2    0    0 -0.82801277590E+01 -0.29177332872E+02  0.14148025524E+03  0.14469468220E+03  0.10566000000E+00 0. -1.
        994    1    1    2    0    0  0.91026631449E+01  0.29091689159E+02  0.60494039605E+01  0.17399775902E+03  0.17120000000E+03 0.  0.
        998    1    1    2    0    0 -0.82253538591E+00  0.85643713745E-01  0.13524703371E+04  0.13525075588E+04  0.10000000000E+02 0. -1.
</event>
<event>
 5    1  0.1533416E-008  0.2535708E+03  0.7957747E-01  0.4295731E+00
         13   -1    0    0    0    0  0.00000000000E+00  0.00000000000E+00  0.14999999963E+04  0.15000000000E+04  0.10566000000E+00 0. -1.
        994   -1    0    0    0    0 -0.00000000000E+00 -0.00000000000E+00  0.11368683772E-12  0.17120000000E+03  0.17120000000E+03 0.  0.
         13    1    1    2    0    0 -0.15649027261E+03 -0.54994253291E+02  0.52140440202E+03  0.54715275283E+03  0.10566000000E+00 0. -1.
        994    1    1    2    0    0  0.45913580598E+02 -0.11929050498E+02  0.47392480014E+02  0.18386366224E+03  0.17120000000E+03 0.  0.
        998    1    1    2    0    0  0.11057669201E+03  0.66923303789E+02  0.93120311424E+03  0.94018358493E+03  0.10000000000E+02 0. -1.
</event>
<event>
 5    1  0.1533416E-008  0.3822753E+03  0.7957747E-01  0.3441311E+00
         13   -1    0    0    0    0  0.00000000000E+00  0.00000000000E+00  0.14999999963E+04  0.15000000000E+04  0.10566000000E+00 0.  1.
        994   -1    0    0    0    0 -0.00000000000E+00 -0.00000000000E+00  0.11368683772E-12  0.17120000000E+03  0.17120000000E+03 0.  0.
         13    1    1    2    0    0 -0.66571041533E+01 -0.14241592472E+02  0.38737793826E+02  0.41806313236E+02  0.10566000000E+00 0.  1.
        994    1    1    2    0    0  0.52243557314E+02 -0.63911755349E+00  0.12099765310E+02  0.17940357319E+03  0.17120000000E+03 0.  0.
        998    1    1    2    0    0 -0.45586453160E+02  0.14880710026E+02  0.14491624371E+04  0.14499901136E+04  0.10000000000E+02 0.  1.
</event>
<event>
 5    1  0.1533416E-008  0.3800405E+03  0.7957747E-01  0.3450982E+00
         13   -1    0    0    0    0  0.00000000000E+00  0.00000000000E+00  0.14999999963E+04  0.15000000000E+04  0.10566000000E+00 0.  1.
        994   -1    0    0    0    0 -0.00000000000E+00 -0.00000000000E+00  0.11368683772E-12  0.17120000000E+03  0.17120000000E+03 0.  0.
         13    1    1    2    0    0  0.21331534620E+01  0.23344149939E+02  0.97472566739E+01  0.25387395628E+02  0.10566000000E+00 0.  1.
        994    1    1    2    0    0 -0.11625383275E+02 -0.16406004378E+02  0.17816034704E+02  0.17329500168E+03  0.17120000000E+03 0.  0.
        998    1    1    2    0    0  0.94922298129E+01 -0.69381455606E+01  0.14724367049E+04  0.14725176027E+04  0.10000000000E+02 0.  1.
</event>
<event>
 5    1  0.1533416E-008  0.3706005E+03  0.7957747E-01  0.3493136E+00
         13   -1    0    0    0    0  0.00000000000E+00  0.00000000000E+00  0.14999999963E+04  0.15000000000E+04  0.10566000000E+00 0. -1.
        994   -1    0    0    0    0 -0.00000000000E+00 -0.00000000000E+00  0.11368683772E-12  0.17120000000E+03  0.17120000000E+03 0.  0.
         13    1    1    2    0    0  0.17527622266E+02  0.23151900277E+00  0.13097363337E+02  0.21882029928E+02  0.10566000000E+00 0. -1.
        994    1    1    2    0    0 -0.16608981186E+02  0.83864528837E+01  0.10150975190E+02  0.17250702347E+03  0.17120000000E+03 0.  0.
        998    1    1    2    0    0 -0.91864108073E+00 -0.86179718864E+01  0.14767516578E+04  0.14768109466E+04  0.10000000000E+02 0. -1.
</event>
<event>
 5    1  0.1533416E-008  0.3742182E+03  0.7957747E-01  0.3476727E+00
         13   -1    0    0    0    0  0.00000000000E+00  0.00000000000E+00  0.14999999963E+04  0.15000000000E+04  0.10566000000E+00 0. -1.
        994   -1    0    0    0    0 -0.00000000000E+00 -0.00000000000E+00  0.11368683772E-12  0.17120000000E+03  0.17120000000E+03 0.  0.
         13    1    1    2    0    0  0.25081438792E+02  0.25691932766E+01  0.20296531526E+02  0.32367262504E+02  0.10566000000E+00 0. -1.
        994    1    1    2    0    0  0.21731632002E+02 -0.18386975384E+01  0.14876393493E+02  0.17322353108E+03  0.17120000000E+03 0.  0.
        998    1    1    2    0    0 -0.46813070794E+02 -0.73049573817E+00  0.14648270713E+04  0.14656092064E+04  0.10000000000E+02 0. -1.
</event>
<event>
 5    1  0.1533416E-008  0.3757896E+03  0.7957747E-01  0.3469699E+00
         13   -1    0    0    0    0  0.00000000000E+00  0.00000000000E+00  0.14999999963E+04  0.15000000000E+04  0.10566000000E+00 0.  1.
        994   -1    0    0    0    0 -0.00000000000E+00 -0.00000000000E+00  0.11368683772E-12  0.17120000000E+03  0.17120000000E+03 0.  0.
         13    1    1    2    0    0  0.96213916638E+02  0.63991259404E+01  0.47835473236E+03  0.48797676964E+03  0.10566000000E+00 0.  1.
        994    1    1    2    0    0 -0.10081797344E+03  0.87137181344E+01  0.41821068921E+02  0.20322065461E+03  0.17120000000E+03 0.  0.
        998    1    1    2    0    0  0.46040568021E+01 -0.15112844075E+02  0.97982419500E+03  0.98000257576E+03  0.10000000000E+02 0.  1.
</event>
<event>
 5    1  0.1533416E-008  0.3904379E+03  0.7957747E-01  0.3406932E+00
         13   -1    0    0    0    0  0.00000000000E+00  0.00000000000E+00  0.14999999963E+04  0.15000000000E+04  0.10566000000E+00 0. -1.
        994   -1    0    0    0    0 -0.00000000000E+00 -0.00000000000E+00  0.11368683772E-12  0.17120000000E+03  0.17120000000E+03 0.  0.
         13    1    1    2    0    0 -0.60285152151E+02 -0.81569864732E+02  0.21234959119E+03  0.23533019875E+03  0.10566000000E+00 0. -1.
        994    1    1    2    0    0  0.56818056510E+02  0.56557040450E+02  0.46833604697E+02  0.19475578784E+03  0.17120000000E+03 0.  0.
        998    1    1    2    0    0  0.34670956414E+01  0.25012824281E+02  0.12408168004E+04  0.12411140134E+04  0.10000000000E+02 0. -1.
</event>
<event>
 5    1  0.1533416E-008  0.3824185E+03  0.7957747E-01  0.3440695E+00
         13   -1    0    0    0    0  0.00000000000E+00  0.00000000000E+00  0.14999999963E+04  0.15000000000E+04  0.10566000000E+00 0.  1.
        994   -1    0    0    0    0 -0.00000000000E+00 -0.00000000000E+00  0.11368683772E-12  0.17120000000E+03  0.17120000000E+03 0.  0.
         13    1    1    2    0    0  0.20928201197E+01 -0.40745746390E+02  0.18313067764E+03  0.18762049995E+03  0.10566000000E+00 0.  1.
        994    1    1    2    0    0  0.18603676379E+02  0.82879449842E+02  0.27226149098E+02  0.19304352663E+03  0.17120000000E+03 0.  0.
        998    1    1    2    0    0 -0.20696496499E+02 -0.42133703452E+02  0.12896431695E+04  0.12905359734E+04  0.10000000000E+02 0.  1.
</event>
<event>
 5    1  0.1533416E-008  0.3762515E+03  0.7957747E-01  0.3467644E+00
         13   -1    0    0    0    0  0.00000000000E+00  0.00000000000E+00  0.14999999963E+04  0.15000000000E+04  0.10566000000E+00 0.  1.
        994   -1    0    0    0    0 -0.00000000000E+00 -0.00000000000E+00  0.11368683772E-12  0.17120000000E+03  0.17120000000E+03 0.  0.
         13    1    1    2    0    0 -0.16260573025E+02  0.13735901222E+01  0.19373209995E+02  0.25330325984E+02  0.10566000000E+00 0.  1.
        994    1    1    2    0    0  0.13359556331E+02 -0.16836418826E+01  0.66514014206E+01  0.17185748030E+03  0.17120000000E+03 0.  0.
        998    1    1    2    0    0  0.29010166945E+01  0.31005176039E+00  0.14739753849E+04  0.14740121937E+04  0.10000000000E+02 0.  1.
</event>
<event>
 5    1  0.1533416E-008  0.3821336E+03  0.7957747E-01  0.3441920E+00
         13   -1    0    0    0    0  0.00000000000E+00  0.00000000000E+00  0.14999999963E+04  0.15000000000E+04  0.10566000000E+00 0. -1.
        994   -1    0    0    0    0 -0.00000000000E+00 -0.00000000000E+00  0.11368683772E-12  0.17120000000E+03  0.17120000000E+03 0.  0.
         13    1    1    2    0    0  0.21294503775E+02  0.19397548424E+01  0.63914351919E+02  0.67396395194E+02  0.10566000000E+00 0. -1.
        994    1    1    2    0    0 -0.43256209125E+02 -0.12687237795E+02  0.98349508700E+01  0.17730829617E+03  0.17120000000E+03 0.  0.
        998    1    1    2    0    0  0.21961705350E+02  0.10747482952E+02  0.14262506935E+04  0.14264953086E+04  0.10000000000E+02 0. -1.
</event>
<event>
 5    1  0.1533416E-008  0.3854165E+03  0.7957747E-01  0.3427908E+00
         13   -1    0    0    0    0  0.00000000000E+00  0.00000000000E+00  0.14999999963E+04  0.15000000000E+04  0.10566000000E+00 0. -1.
        994   -1    0    0    0    0 -0.00000000000E+00 -0.00000000000E+00  0.11368683772E-12  0.17120000000E+03  0.17120000000E+03 0.  0.
         13    1    1    2    0    0  0.11498217158E+02 -0.63376782941E+01  0.66096833363E+02  0.67388260911E+02  0.10566000000E+00 0. -1.
        994    1    1    2    0    0  0.11412557765E+01 -0.48847324032E+01  0.15061483297E+01  0.17128009680E+03  0.17120000000E+03 0.  0.
        998    1    1    2    0    0 -0.12639472934E+02  0.11222410697E+02  0.14323970146E+04  0.14325316423E+04  0.10000000000E+02 0. -1.
</event>
<event>
 5    1  0.1533416E-008  0.3952929E+03  0.7957747E-01  0.3387158E+00
         13   -1    0    0    0    0  0.00000000000E+00  0.00000000000E+00  0.14999999963E+04  0.15000000000E+04  0.10566000000E+00 0. -1.
        994   -1    0    0    0    0 -0.00000000000E+00 -0.00000000000E+00  0.11368683772E-12  0.17120000000E+03  0.17120000000E+03 0.  0.
         13    1    1    2    0    0  0.91593061023E+02 -0.12512627069E+03  0.40614094279E+03  0.43473710334E+03  0.10566000000E+00 0. -1.
        994    1    1    2    0    0 -0.83998561375E+02  0.88780477551E+02  0.85005663678E+02  0.22687691457E+03  0.17120000000E+03 0.  0.
        998    1    1    2    0    0 -0.75944996479E+01  0.36345793141E+02  0.10088533898E+04  0.10095859821E+04  0.10000000000E+02 0. -1.
</event>
<event>
 5    1  0.1533416E-008  0.3849051E+03  0.7957747E-01  0.3430075E+00
         13   -1    0    0    0    0  0.00000000000E+00  0.00000000000E+00  0.14999999963E+04  0.15000000000E+04  0.10566000000E+00 0.  1.
        994   -1    0    0    0    0 -0.00000000000E+00 -0.00000000000E+00  0.11368683772E-12  0.17120000000E+03  0.17120000000E+03 0.  0.
         13    1    1    2    0    0 -0.15058007414E+02  0.27460824949E+01  0.71485193241E+02  0.73105598780E+02  0.10566000000E+00 0.  1.
        994    1    1    2    0    0  0.58268903961E+01 -0.39972871091E+01  0.18415197711E+01  0.17135565982E+03  0.17120000000E+03 0.  0.
        998    1    1    2    0    0  0.92311170176E+01  0.12512046142E+01  0.14266732833E+04  0.14267387414E+04  0.10000000000E+02 0.  0.
</event>
<event>
 5    1  0.1533416E-008  0.3832231E+03  0.7957747E-01  0.3437243E+00
         13   -1    0    0    0    0  0.00000000000E+00  0.00000000000E+00  0.14999999963E+04  0.15000000000E+04  0.10566000000E+00 0. -1.
        994   -1    0    0    0    0 -0.00000000000E+00 -0.00000000000E+00  0.11368683772E-12  0.17120000000E+03  0.17120000000E+03 0.  0.
         13    1    1    2    0    0  0.20394880654E+02 -0.23558427436E+02  0.16665748204E+03  0.16954550464E+03  0.10566000000E+00 0. -1.
        994    1    1    2    0    0 -0.20176784383E+02  0.30051130348E+02  0.68606697829E+01  0.17511905051E+03  0.17120000000E+03 0.  0.
        998    1    1    2    0    0 -0.21809627089E+00 -0.64927029128E+01  0.13264818445E+04  0.13265354448E+04  0.10000000000E+02 0. -1.
</event>
<event>
 5    1  0.1533416E-008  0.3844372E+03  0.7957747E-01  0.3432062E+00
         13   -1    0    0    0    0  0.00000000000E+00  0.00000000000E+00  0.14999999963E+04  0.15000000000E+04  0.10566000000E+00 0.  1.
        994   -1    0    0    0    0 -0.00000000000E+00 -0.00000000000E+00  0.11368683772E-12  0.17120000000E+03  0.17120000000E+03 0.  0.
         13    1    1    2    0    0  0.12777880699E+02 -0.38900907810E+01  0.48732362217E+02  0.50529806380E+02  0.10566000000E+00 0.  1.
        994    1    1    2    0    0 -0.11058009313E+01 -0.56474899680E+01  0.20189129437E+01  0.17130858983E+03  0.17120000000E+03 0.  0.
        998    1    1    2    0    0 -0.11672079768E+02  0.95375807491E+01  0.14492487211E+04  0.14493616038E+04  0.10000000000E+02 0.  1.
</event>
<event>
 5    1  0.1533416E-008  0.3855179E+03  0.7957747E-01  0.3427479E+00
         13   -1    0    0    0    0  0.00000000000E+00  0.00000000000E+00  0.14999999963E+04  0.15000000000E+04  0.10566000000E+00 0.  1.
        994   -1    0    0    0    0 -0.00000000000E+00 -0.00000000000E+00  0.11368683772E-12  0.17120000000E+03  0.17120000000E+03 0.  0.
         13    1    1    2    0    0  0.30700692483E+02 -0.51754387181E+02  0.93158723834E+02  0.11090359824E+03  0.10566000000E+00 0.  1.
        994    1    1    2    0    0 -0.39822779070E+01  0.18603679956E+02  0.20731670418E+02  0.17349696713E+03  0.17120000000E+03 0.  0.
        998    1    1    2    0    0 -0.26718414576E+02  0.33150707225E+02  0.13861096020E+04  0.13867994346E+04  0.10000000000E+02 0.  1.
</event>
<event>
 5    1  0.1533416E-008  0.3803394E+03  0.7957747E-01  0.3449682E+00
         13   -1    0    0    0    0  0.00000000000E+00  0.00000000000E+00  0.14999999963E+04  0.15000000000E+04  0.10566000000E+00 0.  1.
        994   -1    0    0    0    0 -0.00000000000E+00 -0.00000000000E+00  0.11368683772E-12  0.17120000000E+03  0.17120000000E+03 0.  0.
         13    1    1    2    0    0 -0.15023308162E+02 -0.23369252001E+02  0.90786718727E+02  0.94942409851E+02  0.10566000000E+00 0.  1.
        994    1    1    2    0    0  0.22503205006E+02  0.19292633993E+02  0.69012794863E+01  0.17388406373E+03  0.17120000000E+03 0.  0.
        998    1    1    2    0    0 -0.74798968438E+01  0.40766180079E+01  0.14023119981E+04  0.14023735264E+04  0.10000000000E+02 0.  1.
</event>
<event>
 5    1  0.1533416E-008  0.3712073E+03  0.7957747E-01  0.3490361E+00
         13   -1    0    0    0    0  0.00000000000E+00  0.00000000000E+00  0.14999999963E+04  0.15000000000E+04  0.10566000000E+00 0. -1.
        994   -1    0    0    0    0 -0.00000000000E+00 -0.00000000000E+00  0.11368683772E-12  0.17120000000E+03  0.17120000000E+03 0.  0.
         13    1    1    2    0    0 -0.79890942285E+02 -0.10143967514E+03  0.77271880185E+03  0.78343278477E+03  0.10566000000E+00 0. -1.
        994    1    1    2    0    0  0.10070156222E+03  0.26882012286E+02  0.50761236517E+02  0.20675974064E+03  0.17120000000E+03 0.  0.
        998    1    1    2    0    0 -0.20810619937E+02  0.74557662853E+02  0.67651995791E+03  0.68100747459E+03  0.10000000000E+02 0.  1.
</event>
<event>
 5    1  0.1533416E-008  0.3838542E+03  0.7957747E-01  0.3434546E+00
         13   -1    0    0    0    0  0.00000000000E+00  0.00000000000E+00  0.14999999963E+04  0.15000000000E+04  0.10566000000E+00 0.  1.
        994   -1    0    0    0    0 -0.00000000000E+00 -0.00000000000E+00  0.11368683772E-12  0.17120000000E+03  0.17120000000E+03 0.  0.
         13    1    1    2    0    0 -0.71346841684E+01  0.18016460034E+02  0.10261047713E+03  0.10442422004E+03  0.10566000000E+00 0.  1.
        994    1    1    2    0    0  0.96090333351E+01  0.18713665937E+02  0.36621838938E+01  0.17252648030E+03  0.17120000000E+03 0.  0.
        998    1    1    2    0    0 -0.24743491666E+01 -0.36730125970E+02  0.13937273353E+04  0.13942492997E+04  0.10000000000E+02 0.  1.
</event>
<event>
 5    1  0.1533416E-008  0.3788584E+03  0.7957747E-01  0.3456144E+00
         13   -1    0    0    0    0  0.00000000000E+00  0.00000000000E+00  0.14999999963E+04  0.15000000000E+04  0.10566000000E+00 0.  1.
        994   -1    0    0    0    0 -0.00000000000E+00 -0.00000000000E+00  0.11368683772E-12  0.17120000000E+03  0.17120000000E+03 0.  0.
         13    1    1    2    0    0  0.29852013061E+02  0.12878829395E+02  0.11152013685E+03  0.11616264037E+03  0.10566000000E+00 0.  1.
        994    1    1    2    0    0 -0.13539043944E+02 -0.13903694724E+02  0.59752899372E+01  0.17240000733E+03  0.17120000000E+03 0.  0.
        998    1    1    2    0    0 -0.16312969117E+02  0.10248653285E+01  0.13825045695E+04  0.13826373523E+04  0.10000000000E+02 0.  1.
</event>
<event>
 5    1  0.1533416E-008  0.3808176E+03  0.7957747E-01  0.3447606E+00
         13   -1    0    0    0    0  0.00000000000E+00  0.00000000000E+00  0.14999999963E+04  0.15000000000E+04  0.10566000000E+00 0.  1.
        994   -1    0    0    0    0 -0.00000000000E+00 -0.00000000000E+00  0.11368683772E-12  0.17120000000E+03  0.17120000000E+03 0.  0.
         13    1    1    2    0    0 -0.14557847107E+02  0.45579366026E+02  0.65793646635E+02  0.81352471513E+02  0.10566000000E+00 0.  1.
        994    1    1    2    0    0  0.12194204328E+02 -0.97827980229E+01  0.17665912657E+02  0.17281760971E+03  0.17120000000E+03 0.  0.
        998    1    1    2    0    0  0.23636427796E+01 -0.35796568003E+02  0.14165404370E+04  0.14170299188E+04  0.10000000000E+02 0.  1.
</event>
<event>
 5    1  0.1533416E-008  0.3805786E+03  0.7957747E-01  0.3448643E+00
         13   -1    0    0    0    0  0.00000000000E+00  0.00000000000E+00  0.14999999963E+04  0.15000000000E+04  0.10566000000E+00 0.  1.
        994   -1    0    0    0    0 -0.00000000000E+00 -0.00000000000E+00  0.11368683772E-12  0.17120000000E+03  0.17120000000E+03 0.  0.
         13    1    1    2    0    0  0.17649329457E+02  0.33496319292E+02  0.16342811758E+03  0.16775655879E+03  0.10566000000E+00 0.  1.
        994    1    1    2    0    0 -0.21991960702E+02 -0.34548334663E+02  0.94578501496E+01  0.17628421567E+03  0.17120000000E+03 0.  0.
        998    1    1    2    0    0  0.43426312449E+01  0.10520153709E+01  0.13271140285E+04  0.13271592255E+04  0.10000000000E+02 0.  1.
</event>
<event>
 5    1  0.1533416E-008  0.3841712E+03  0.7957747E-01  0.3433195E+00
         13   -1    0    0    0    0  0.00000000000E+00  0.00000000000E+00  0.14999999963E+04  0.15000000000E+04  0.10566000000E+00 0. -1.
        994   -1    0    0    0    0 -0.00000000000E+00 -0.00000000000E+00  0.11368683772E-12  0.17120000000E+03  0.17120000000E+03 0.  0.
         13    1    1    2    0    0  0.17473868317E+02 -0.95746201598E+01  0.90406769710E+02  0.92576479727E+02  0.10566000000E+00 0. -1.
        994    1    1    2    0    0 -0.21781552035E+02  0.80991618864E+01  0.38249820794E+01  0.17281233440E+03  0.17120000000E+03 0.  0.
        998    1    1    2    0    0  0.43076837182E+01  0.14754582734E+01  0.14057682445E+04  0.14058111859E+04  0.10000000000E+02 0.  0.
</event>
<event>
 5    1  0.1533416E-008  0.3796486E+03  0.7957747E-01  0.3452690E+00
         13   -1    0    0    0    0  0.00000000000E+00  0.00000000000E+00  0.14999999963E+04  0.15000000000E+04  0.10566000000E+00 0. -1.
        994   -1    0    0    0    0 -0.00000000000E+00 -0.00000000000E+00  0.11368683772E-12  0.17120000000E+03  0.17120000000E+03 0.  0.
         13    1    1    2    0    0  0.30764954935E+02 -0.13875864175E+02  0.14159418952E+03  0.14556080423E+03  0.10566000000E+00 0. -1.
        994    1    1    2    0    0 -0.29099922197E+01  0.10212390204E+02  0.46881075041E+01  0.17159306315E+03  0.17120000000E+03 0.  0.
        998    1    1    2    0    0 -0.27854962716E+02  0.36634739710E+01  0.13537176993E+04  0.13540461326E+04  0.10000000000E+02 0. -1.
</event>
<event>
 5    1  0.1533416E-008  0.3802636E+03  0.7957747E-01  0.3450011E+00
         13   -1    0    0    0    0  0.00000000000E+00  0.00000000000E+00  0.14999999963E+04  0.15000000000E+04  0.10566000000E+00 0. -1.
        994   -1    0    0    0    0 -0.00000000000E+00 -0.00000000000E+00  0.11368683772E-12  0.17120000000E+03  0.17120000000E+03 0.  0.
         13    1    1    2    0    0 -0.50707153007E+02  0.26048215719E+02  0.33266769386E+03  0.33751671160E+03  0.10566000000E+00 0. -1.
        994    1    1    2    0    0  0.46277514560E+02 -0.24756795292E+02  0.13255615967E+02  0.17955405487E+03  0.17120000000E+03 0.  0.
        998    1    1    2    0    0  0.44296384471E+01 -0.12914204274E+01  0.11540766865E+04  0.11541292335E+04  0.10000000000E+02 0. -1.
</event>
<event>
 5    1  0.1533416E-008  0.3690952E+03  0.7957747E-01  0.3500060E+00
         13   -1    0    0    0    0  0.00000000000E+00  0.00000000000E+00  0.14999999963E+04  0.15000000000E+04  0.10566000000E+00 0.  1.
        994   -1    0    0    0    0 -0.00000000000E+00 -0.00000000000E+00  0.11368683772E-12  0.17120000000E+03  0.17120000000E+03 0.  0.
         13    1    1    2    0    0  0.93726225168E+01  0.13334100964E+02  0.89768319738E+01  0.18607497889E+02  0.10566000000E+00 0.  1.
        994    1    1    2    0    0 -0.20088994915E+02 -0.16540527852E+02  0.12095037824E+02  0.17358826780E+03  0.17120000000E+03 0.  0.
        998    1    1    2    0    0  0.10716372398E+02  0.32064268874E+01  0.14789281265E+04  0.14790042343E+04  0.10000000000E+02 0.  1.
</event>
<event>
 5    1  0.1533416E-008  0.3827710E+03  0.7957747E-01  0.3439181E+00
         13   -1    0    0    0    0  0.00000000000E+00  0.00000000000E+00  0.14999999963E+04  0.15000000000E+04  0.10566000000E+00 0.  1.
        994   -1    0    0    0    0 -0.00000000000E+00 -0.00000000000E+00  0.11368683772E-12  0.17120000000E+03  0.17120000000E+03 0.  0.
         13    1    1    2    0    0  0.15087797620E+02 -0.78900724752E+00  0.39837848390E+02  0.42606683723E+02  0.10566000000E+00 0.  1.
        994    1    1    2    0    0 -0.15766291946E+02  0.43914462307E+00  0.35653315317E+01  0.17196197370E+03  0.17120000000E+03 0.  0.
        998    1    1    2    0    0  0.67849432548E+00  0.34986262446E+00  0.14565968164E+04  0.14566313426E+04  0.10000000000E+02 0.  1.
</event>
<event>
 5    1  0.1533416E-008  0.3862528E+03  0.7957747E-01  0.3424376E+00
         13   -1    0    0    0    0  0.00000000000E+00  0.00000000000E+00  0.14999999963E+04  0.15000000000E+04  0.10566000000E+00 0.  1.
        994   -1    0    0    0    0 -0.00000000000E+00 -0.00000000000E+00  0.11368683772E-12  0.17120000000E+03  0.17120000000E+03 0.  0.
         13    1    1    2    0    0 -0.63682695486E+00 -0.11546705877E+02  0.67239497220E+02  0.68226777116E+02  0.10566000000E+00 0.  1.
        994    1    1    2    0    0 -0.15237281516E+00  0.78589224513E+01  0.12118090153E+01  0.17138463864E+03  0.17120000000E+03 0.  0.
        998    1    1    2    0    0  0.78919977002E+00  0.36877834253E+01  0.14315486900E+04  0.14315885842E+04  0.10000000000E+02 0.  1.
</event>
<event>
 5    1  0.1533416E-008  0.3845037E+03  0.7957747E-01  0.3431780E+00
         13   -1    0    0    0    0  0.00000000000E+00  0.00000000000E+00  0.14999999963E+04  0.15000000000E+04  0.10566000000E+00 0. -1.
        994   -1    0    0    0    0 -0.00000000000E+00 -0.00000000000E+00  0.11368683772E-12  0.17120000000E+03  0.17120000000E+03 0.  0.
         13    1    1    2    0    0  0.54733550950E+00  0.11674620564E+02  0.37110064299E+02  0.38907125025E+02  0.10566000000E+00 0. -1.
        994    1    1    2    0    0  0.40055183385E+01 -0.16490305474E+01  0.19385356296E+01  0.17126576248E+03  0.17120000000E+03 0.  0.
        998    1    1    2    0    0 -0.45528538480E+01 -0.10025590016E+02  0.14609513964E+04  0.14610271125E+04  0.10000000000E+02 0. -1.
</event>
<event>
 5    1  0.1533416E-008  0.3756084E+03  0.7957747E-01  0.3470506E+00
         13   -1    0    0    0    0  0.00000000000E+00  0.00000000000E+00  0.14999999963E+04  0.15000000000E+04  0.10566000000E+00 0. -1.
        994   -1    0    0    0    0 -0.00000000000E+00 -0.00000000000E+00  0.11368683772E-12  0.17120000000E+03  0.17120000000E+03 0.  0.
         13    1    1    2    0    0  0.12628892287E+02  0.28926956097E+02  0.76346333997E+02  0.82613749390E+02  0.10566000000E+00 0. -1.
        994    1    1    2    0    0 -0.10990495035E+02 -0.15177569935E+02  0.75587062642E+01  0.17238829325E+03  0.17120000000E+03 0.  0.
        998    1    1    2    0    0 -0.16383972519E+01 -0.13749386161E+02  0.14160949560E+04  0.14161979574E+04  0.10000000000E+02 0. -1.
</event>
<event>
 5    1  0.1533416E-008  0.4225395E+03  0.7957747E-01  0.3284560E+00
         13   -1    0    0    0    0  0.00000000000E+00  0.00000000000E+00  0.14999999963E+04  0.15000000000E+04  0.10566000000E+00 0. -1.
        994   -1    0    0    0    0 -0.00000000000E+00 -0.00000000000E+00  0.11368683772E-12  0.17120000000E+03  0.17120000000E+03 0.  0.
         13    1    1    2    0    0  0.10877196164E+03  0.31440861194E+02  0.12923743455E+03  0.17182023468E+03  0.10566000000E+00 0. -1.
        994    1    1    2    0    0 -0.11344495403E+03 -0.47068311908E+01  0.10033493772E+03  0.22862294631E+03  0.17120000000E+03 0.  0.
        998    1    1    2    0    0  0.46729923883E+01 -0.26734030003E+02  0.12704276240E+04  0.12707568190E+04  0.10000000000E+02 0. -1.
</event>
<event>
 5    1  0.1533416E-008  0.3804851E+03  0.7957747E-01  0.3449049E+00
         13   -1    0    0    0    0  0.00000000000E+00  0.00000000000E+00  0.14999999963E+04  0.15000000000E+04  0.10566000000E+00 0. -1.
        994   -1    0    0    0    0 -0.00000000000E+00 -0.00000000000E+00  0.11368683772E-12  0.17120000000E+03  0.17120000000E+03 0.  0.
         13    1    1    2    0    0  0.12574402373E+03  0.10523056842E+03  0.94641678210E+03  0.96051536616E+03  0.10566000000E+00 0. -1.
        994    1    1    2    0    0 -0.14311880118E+03 -0.94924704139E+02  0.10956905240E+03  0.26609868085E+03  0.17120000000E+03 0.  0.
        998    1    1    2    0    0  0.17374777446E+02 -0.10305864283E+02  0.44401416179E+03  0.44458595299E+03  0.10000000000E+02 0.  0.
</event>
<event>
 5    1  0.1533416E-008  0.3735461E+03  0.7957747E-01  0.3479751E+00
         13   -1    0    0    0    0  0.00000000000E+00  0.00000000000E+00  0.14999999963E+04  0.15000000000E+04  0.10566000000E+00 0.  1.
        994   -1    0    0    0    0 -0.00000000000E+00 -0.00000000000E+00  0.11368683772E-12  0.17120000000E+03  0.17120000000E+03 0.  0.
         13    1    1    2    0    0  0.68647494502E+02 -0.16943689939E+02  0.37086289872E+03  0.37754320010E+03  0.10566000000E+00 0.  1.
        994    1    1    2    0    0 -0.29862492189E+02 -0.34595396330E+01  0.10520559991E+02  0.17413747166E+03  0.17120000000E+03 0.  0.
        998    1    1    2    0    0 -0.38785002313E+02  0.20403229572E+02  0.11186165376E+04  0.11195193282E+04  0.10000000000E+02 0.  1.
</event>
<event>
 5    1  0.1533416E-008  0.3747902E+03  0.7957747E-01  0.3474162E+00
         13   -1    0    0    0    0  0.00000000000E+00  0.00000000000E+00  0.14999999963E+04  0.15000000000E+04  0.10566000000E+00 0. -1.
        994   -1    0    0    0    0 -0.00000000000E+00 -0.00000000000E+00  0.11368683772E-12  0.17120000000E+03  0.17120000000E+03 0.  0.
         13    1    1    2    0    0 -0.19421436497E+02  0.91717831826E+02  0.43334682624E+03  0.44337211894E+03  0.10566000000E+00 0. -1.
        994    1    1    2    0    0  0.58586862853E+02 -0.90700102117E+02  0.47542050631E+02  0.20791492395E+03  0.17120000000E+03 0.  0.
        998    1    1    2    0    0 -0.39165426356E+02 -0.10177297094E+01  0.10191111194E+04  0.10199129571E+04  0.10000000000E+02 0. -1.
</event>
<event>
 5    1  0.1533416E-008  0.3835336E+03  0.7957747E-01  0.3435915E+00
         13   -1    0    0    0    0  0.00000000000E+00  0.00000000000E+00  0.14999999963E+04  0.15000000000E+04  0.10566000000E+00 0. -1.
        994   -1    0    0    0    0 -0.00000000000E+00 -0.00000000000E+00  0.11368683772E-12  0.17120000000E+03  0.17120000000E+03 0.  0.
         13    1    1    2    0    0  0.91654489869E+02  0.67621718667E+02  0.33325710518E+03  0.35218397418E+03  0.10566000000E+00 0. -1.
        994    1    1    2    0    0 -0.68567711912E+02 -0.36924867080E+02  0.40903580541E+02  0.19247732289E+03  0.17120000000E+03 0.  0.
        998    1    1    2    0    0 -0.23086777957E+02 -0.30696851588E+02  0.11258393106E+04  0.11265387029E+04  0.10000000000E+02 0.  1.
</event>
<event>
 5    1  0.1533416E-008  0.3814349E+03  0.7957747E-01  0.3444934E+00
         13   -1    0    0    0    0  0.00000000000E+00  0.00000000000E+00  0.14999999963E+04  0.15000000000E+04  0.10566000000E+00 0. -1.
        994   -1    0    0    0    0 -0.00000000000E+00 -0.00000000000E+00  0.11368683772E-12  0.17120000000E+03  0.17120000000E+03 0.  0.
         13    1    1    2    0    0  0.23760449021E+02 -0.12144505603E+02  0.10001145071E+03  0.10351014149E+03  0.10566000000E+00 0. -1.
        994    1    1    2    0    0 -0.21670297328E+02  0.60591271300E+01  0.50969731274E+01  0.17274760184E+03  0.17120000000E+03 0.  0.
        998    1    1    2    0    0 -0.20901516937E+01  0.60853784730E+01  0.13948915724E+04  0.13949422567E+04  0.10000000000E+02 0. -1.
</event>
<event>
 5    1  0.1533416E-008  0.3850470E+03  0.7957747E-01  0.3429473E+00
         13   -1    0    0    0    0  0.00000000000E+00  0.00000000000E+00  0.14999999963E+04  0.15000000000E+04  0.10566000000E+00 0. -1.
        994   -1    0    0    0    0 -0.00000000000E+00 -0.00000000000E+00  0.11368683772E-12  0.17120000000E+03  0.17120000000E+03 0.  0.
         13    1    1    2    0    0  0.67819032153E+00  0.13989255598E+02  0.63908793879E+02  0.65425563150E+02  0.10566000000E+00 0. -1.
        994    1    1    2    0    0 -0.34674927255E+01 -0.19749877728E+01  0.16591838695E+01  0.17125453855E+03  0.17120000000E+03 0.  0.
        998    1    1    2    0    0  0.27893024040E+01 -0.12014267825E+02  0.14344320185E+04  0.14345198983E+04  0.10000000000E+02 0. -1.
</event>
<event>
 5    1  0.1533416E-008  0.3736012E+03  0.7957747E-01  0.3479503E+00
         13   -1    0    0    0    0  0.00000000000E+00  0.00000000000E+00  0.14999999963E+04  0.15000000000E+04  0.10566000000E+00 0. -1.
        994   -1    0    0    0    0 -0.00000000000E+00 -0.00000000000E+00  0.11368683772E-12  0.17120000000E+03  0.17120000000E+03 0.  0.
         13    1    1    2    0    0  0.15084748711E+02 -0.55852881685E+02  0.31572144954E+03  0.32097840877E+03  0.10566000000E+00 0. -1.
        994    1    1    2    0    0 -0.28627862161E+02 -0.16806477046E+02  0.11171810431E+02  0.17474627753E+03  0.17120000000E+03 0.  0.
        998    1    1    2    0    0  0.13543113450E+02  0.72659358730E+02  0.11731067363E+04  0.11754753137E+04  0.10000000000E+02 0. -1.
</event>
<event>
 5    1  0.1533416E-008  0.3856216E+03  0.7957747E-01  0.3427040E+00
         13   -1    0    0    0    0  0.00000000000E+00  0.00000000000E+00  0.14999999963E+04  0.15000000000E+04  0.10566000000E+00 0.  1.
        994   -1    0    0    0    0 -0.00000000000E+00 -0.00000000000E+00  0.11368683772E-12  0.17120000000E+03  0.17120000000E+03 0.  0.
         13    1    1    2    0    0  0.14444312218E+02  0.55365400074E+01  0.87893288575E+02  0.89244231025E+02  0.10566000000E+00 0.  1.
        994    1    1    2    0    0 -0.90391352438E+01 -0.17573442192E+02  0.26046488605E+01  0.17235647952E+03  0.17120000000E+03 0.  0.
        998    1    1    2    0    0 -0.54051769739E+01  0.12036902184E+02  0.14095020588E+04  0.14095992895E+04  0.10000000000E+02 0.  1.
</event>
<event>
 5    1  0.1533416E-008  0.3847628E+03  0.7957747E-01  0.3430679E+00
         13   -1    0    0    0    0  0.00000000000E+00  0.00000000000E+00  0.14999999963E+04  0.15000000000E+04  0.10566000000E+00 0.  1.
        994   -1    0    0    0    0 -0.00000000000E+00 -0.00000000000E+00  0.11368683772E-12  0.17120000000E+03  0.17120000000E+03 0.  0.
         13    1    1    2    0    0 -0.96972314755E+01 -0.45438450688E+01  0.34750319876E+02  0.36363150603E+02  0.10566000000E+00 0.  1.
        994    1    1    2    0    0 -0.14183353279E+01 -0.13712239303E+02  0.23736581854E+01  0.17177051969E+03  0.17120000000E+03 0.  0.
        998    1    1    2    0    0  0.11115566803E+02  0.18256084371E+02  0.14628760182E+04  0.14630663297E+04  0.10000000000E+02 0.  1.
</event>
<event>
 5    1  0.1533416E-008  0.3689284E+03  0.7957747E-01  0.3500830E+00
         13   -1    0    0    0    0  0.00000000000E+00  0.00000000000E+00  0.14999999963E+04  0.15000000000E+04  0.10566000000E+00 0.  1.
        994   -1    0    0    0    0 -0.00000000000E+00 -0.00000000000E+00  0.11368683772E-12  0.17120000000E+03  0.17120000000E+03 0.  0.
         13    1    1    2    0    0 -0.26931647252E+00 -0.87191097386E+02  0.28513391576E+03  0.29816727030E+03  0.10566000000E+00 0.  1.
        994    1    1    2    0    0 -0.14937490202E+02  0.91370550749E+02  0.40854207737E+02  0.19887235214E+03  0.17120000000E+03 0.  0.
        998    1    1    2    0    0  0.15206806674E+02 -0.41794533628E+01  0.11740118728E+04  0.11741603776E+04  0.10000000000E+02 0.  1.
</event>
<event>
 5    1  0.1533416E-008  0.3817575E+03  0.7957747E-01  0.3443541E+00
         13   -1    0    0    0    0  0.00000000000E+00  0.00000000000E+00  0.14999999963E+04  0.15000000000E+04  0.10566000000E+00 0.  1.
        994   -1    0    0    0    0 -0.00000000000E+00 -0.00000000000E+00  0.11368683772E-12  0.17120000000E+03  0.17120000000E+03 0.  0.
         13    1    1    2    0    0  0.67633803028E+02 -0.83422115022E+02  0.26220128051E+03  0.28334273108E+03  0.10566000000E+00 0.  1.
        994    1    1    2    0    0 -0.61118875920E+02  0.93495806365E+02  0.64352913704E+02  0.21430753674E+03  0.17120000000E+03 0.  0.
        998    1    1    2    0    0 -0.65149271082E+01 -0.10073691343E+02  0.11734458021E+04  0.11735497322E+04  0.10000000000E+02 0.  1.
</event>
<event>
 5    1  0.1533416E-008  0.3854009E+03  0.7957747E-01  0.3427974E+00
         13   -1    0    0    0    0  0.00000000000E+00  0.00000000000E+00  0.14999999963E+04  0.15000000000E+04  0.10566000000E+00 0. -1.
        994   -1    0    0    0    0 -0.00000000000E+00 -0.00000000000E+00  0.11368683772E-12  0.17120000000E+03  0.17120000000E+03 0.  0.
         13    1    1    2    0    0 -0.12015058301E+02  0.10243732677E+02  0.92247494437E+02  0.93589032900E+02  0.10566000000E+00 0. -1.
        994    1    1    2    0    0  0.30288618169E+01 -0.20422034738E+01  0.14750360770E+01  0.17124532207E+03  0.17120000000E+03 0.  0.
        998    1    1    2    0    0  0.89861964843E+01 -0.82015292029E+01  0.14062774658E+04  0.14063656450E+04  0.10000000000E+02 0. -1.
</event>
<event>
 5    1  0.1533416E-008  0.3828937E+03  0.7957747E-01  0.3438655E+00
         13   -1    0    0    0    0  0.00000000000E+00  0.00000000000E+00  0.14999999963E+04  0.15000000000E+04  0.10566000000E+00 0. -1.
        994   -1    0    0    0    0 -0.00000000000E+00 -0.00000000000E+00  0.11368683772E-12  0.17120000000E+03  0.17120000000E+03 0.  0.
         13    1    1    2    0    0 -0.99507117390E+01  0.52197590917E+01  0.21607228369E+02  0.24354589524E+02  0.10566000000E+00 0. -1.
        994    1    1    2    0    0  0.16948126756E+02 -0.14394896242E+02  0.43184796231E+01  0.17269204181E+03  0.17120000000E+03 0.  0.
        998    1    1    2    0    0 -0.69974150175E+01  0.91751371505E+01  0.14740742883E+04  0.14741533687E+04  0.10000000000E+02 0. -1.
</event>
<event>
 5    1  0.1533416E-008  0.3845282E+03  0.7957747E-01  0.3431676E+00
         13   -1    0    0    0    0  0.00000000000E+00  0.00000000000E+00  0.14999999963E+04  0.15000000000E+04  0.10566000000E+00 0.  1.
        994   -1    0    0    0    0 -0.00000000000E+00 -0.00000000000E+00  0.11368683772E-12  0.17120000000E+03  0.17120000000E+03 0.  0.
         13    1    1    2    0    0 -0.75797379315E+01  0.95376026004E+01  0.39390513599E+02  0.41231565773E+02  0.10566000000E+00 0.  1.
        994    1    1    2    0    0 -0.72028845068E+01 -0.16983117713E+02  0.29862345711E+01  0.17221691389E+03  0.17120000000E+03 0.  0.
        998    1    1    2    0    0  0.14782622438E+02  0.74455151122E+01  0.14576232481E+04  0.14577515203E+04  0.10000000000E+02 0.  1.
</event>
<event>
 5    1  0.1533416E-008  0.3832703E+03  0.7957747E-01  0.3437041E+00
         13   -1    0    0    0    0  0.00000000000E+00  0.00000000000E+00  0.14999999963E+04  0.15000000000E+04  0.10566000000E+00 0.  1.
        994   -1    0    0    0    0 -0.00000000000E+00 -0.00000000000E+00  0.11368683772E-12  0.17120000000E+03  0.17120000000E+03 0.  0.
         13    1    1    2    0    0 -0.11284342958E+02  0.15861971211E+01  0.24894271858E+02  0.27378611226E+02  0.10566000000E+00 0.  1.
        994    1    1    2    0    0  0.11330122088E+02 -0.22786572240E+01  0.29331685413E+01  0.17161470631E+03  0.17120000000E+03 0.  0.
        998    1    1    2    0    0 -0.45779129901E-01  0.69246010282E+00  0.14721725559E+04  0.14722066825E+04  0.10000000000E+02 0.  1.
</event>
<event>
 5    1  0.1533416E-008  0.3736489E+03  0.7957747E-01  0.3479288E+00
         13   -1    0    0    0    0  0.00000000000E+00  0.00000000000E+00  0.14999999963E+04  0.15000000000E+04  0.10566000000E+00 0.  1.
        994   -1    0    0    0    0 -0.00000000000E+00 -0.00000000000E+00  0.11368683772E-12  0.17120000000E+03  0.17120000000E+03 0.  0.
         13    1    1    2    0    0 -0.21682213964E+02 -0.18240287829E+03  0.82960287710E+03  0.84969516491E+03  0.10566000000E+00 0.  1.
        994    1    1    2    0    0  0.39042406599E+02  0.18196128894E+03  0.13674519767E+03  0.28747679780E+03  0.17120000000E+03 0.  0.
        998    1    1    2    0    0 -0.17360192635E+02  0.44158935698E+00  0.53365192150E+03  0.53402803729E+03  0.10000000000E+02 0.  1.
</event>
<event>
 5    1  0.1533416E-008  0.3764824E+03  0.7957747E-01  0.3466619E+00
         13   -1    0    0    0    0  0.00000000000E+00  0.00000000000E+00  0.14999999963E+04  0.15000000000E+04  0.10566000000E+00 0. -1.
        994   -1    0    0    0    0 -0.00000000000E+00 -0.00000000000E+00  0.11368683772E-12  0.17120000000E+03  0.17120000000E+03 0.  0.
         13    1    1    2    0    0 -0.72043324342E+02 -0.19694562934E+02  0.18355650729E+03  0.19816941975E+03  0.10566000000E+00 0. -1.
        994    1    1    2    0    0  0.51328009116E+02  0.12817994695E+02  0.24489630098E+02  0.18085366319E+03  0.17120000000E+03 0.  0.
        998    1    1    2    0    0  0.20715315227E+02  0.68765682391E+01  0.12919538589E+04  0.12921769171E+04  0.10000000000E+02 0. -1.
</event>
<event>
 5    1  0.1533416E-008  0.3858854E+03  0.7957747E-01  0.3425926E+00
         13   -1    0    0    0    0  0.00000000000E+00  0.00000000000E+00  0.14999999963E+04  0.15000000000E+04  0.10566000000E+00 0. -1.
        994   -1    0    0    0    0 -0.00000000000E+00 -0.00000000000E+00  0.11368683772E-12  0.17120000000E+03  0.17120000000E+03 0.  0.
         13    1    1    2    0    0 -0.25285873679E+01 -0.12599185749E+02  0.73035911433E+02  0.74157863767E+02  0.10566000000E+00 0. -1.
        994    1    1    2    0    0 -0.45559492465E+01  0.41360235800E+01  0.13153372974E+01  0.17131559613E+03  0.17120000000E+03 0.  0.
        998    1    1    2    0    0  0.70845366144E+01  0.84631621687E+01  0.14256487475E+04  0.14257265401E+04  0.10000000000E+02 0. -1.
</event>
<event>
 5    1  0.1533416E-008  0.3748145E+03  0.7957747E-01  0.3474053E+00
         13   -1    0    0    0    0  0.00000000000E+00  0.00000000000E+00  0.14999999963E+04  0.15000000000E+04  0.10566000000E+00 0.  1.
        994   -1    0    0    0    0 -0.00000000000E+00 -0.00000000000E+00  0.11368683772E-12  0.17120000000E+03  0.17120000000E+03 0.  0.
         13    1    1    2    0    0  0.62543586503E+01 -0.57654097644E+02  0.13342000262E+03  0.14547859032E+03  0.10566000000E+00 0.  1.
        994    1    1    2    0    0  0.16876178387E+02  0.10405351705E+02  0.14906509407E+02  0.17298763182E+03  0.17120000000E+03 0.  0.
        998    1    1    2    0    0 -0.23130537037E+02  0.47248745939E+02  0.13516734843E+04  0.13527337779E+04  0.10000000000E+02 0.  1.
</event>
<event>
 5    1  0.1533416E-008  0.3831892E+03  0.7957747E-01  0.3437389E+00
         13   -1    0    0    0    0  0.00000000000E+00  0.00000000000E+00  0.14999999963E+04  0.15000000000E+04  0.10566000000E+00 0. -1.
        994   -1    0    0    0    0 -0.00000000000E+00 -0.00000000000E+00  0.11368683772E-12  0.17120000000E+03  0.17120000000E+03 0.  0.
         13    1    1    2    0    0 -0.14980237194E+02  0.52217446324E+01  0.51462705420E+02  0.53852533242E+02  0.10566000000E+00 0. -1.
        994    1    1    2    0    0  0.25064586162E+00  0.11909540293E+01  0.25367559631E+01  0.17122311855E+03  0.17120000000E+03 0.  0.
        998    1    1    2    0    0  0.14729591332E+02 -0.64126986617E+01  0.14460005349E+04  0.14461243482E+04  0.10000000000E+02 0. -1.
</event>
<event>
 5    1  0.1533416E-008  0.3852828E+03  0.7957747E-01  0.3428474E+00
         13   -1    0    0    0    0  0.00000000000E+00  0.00000000000E+00  0.14999999963E+04  0.15000000000E+04  0.10566000000E+00 0. -1.
        994   -1    0    0    0    0 -0.00000000000E+00 -0.00000000000E+00  0.11368683772E-12  0.17120000000E+03  0.17120000000E+03 0.  0.
         13    1    1    2    0    0  0.15135669804E+02  0.47504340255E+01  0.92029598903E+02  0.93386901448E+02  0.10566000000E+00 0. -1.
        994    1    1    2    0    0 -0.56234533381E+00  0.20643827512E+01  0.15048377907E+01  0.17121998261E+03  0.17120000000E+03 0.  0.
        998    1    1    2    0    0 -0.14573324470E+02 -0.68148167767E+01  0.14064655596E+04  0.14065931159E+04  0.10000000000E+02 0. -1.
</event>
<event>
 5    1  0.1533416E-008  0.3699066E+03  0.7957747E-01  0.3496320E+00
         13   -1    0    0    0    0  0.00000000000E+00  0.00000000000E+00  0.14999999963E+04  0.15000000000E+04  0.10566000000E+00 0. -1.
        994   -1    0    0    0    0 -0.00000000000E+00 -0.00000000000E+00  0.11368683772E-12  0.17120000000E+03  0.17120000000E+03 0.  0.
         13    1    1    2    0    0  0.13787521315E+02 -0.11705724081E+02  0.10124680439E+02  0.20727760089E+02  0.10566000000E+00 0. -1.
        994    1    1    2    0    0 -0.12807801434E+02  0.10018500354E+02  0.11814004041E+02  0.17237581274E+03  0.17120000000E+03 0.  0.
        998    1    1    2    0    0 -0.97971988153E+00  0.16872237268E+01  0.14780613118E+04  0.14780964272E+04  0.10000000000E+02 0. -1.
</event>
<event>
 5    1  0.1533416E-008  0.3858867E+03  0.7957747E-01  0.3425920E+00
         13   -1    0    0    0    0  0.00000000000E+00  0.00000000000E+00  0.14999999963E+04  0.15000000000E+04  0.10566000000E+00 0.  1.
        994   -1    0    0    0    0 -0.00000000000E+00 -0.00000000000E+00  0.11368683772E-12  0.17120000000E+03  0.17120000000E+03 0.  0.
         13    1    1    2    0    0 -0.92708761947E+01  0.85511149689E+01  0.61349623310E+02  0.62632724329E+02  0.10566000000E+00 0.  1.
        994    1    1    2    0    0  0.22746116625E+02 -0.78796847125E+01  0.30931018307E+01  0.17291177673E+03  0.17120000000E+03 0.  0.
        998    1    1    2    0    0 -0.13475240431E+02 -0.67143025645E+00  0.14355572711E+04  0.14356554989E+04  0.10000000000E+02 0.  1.
</event>
<event>
 5    1  0.1533416E-008  0.3775369E+03  0.7957747E-01  0.3461954E+00
         13   -1    0    0    0    0  0.00000000000E+00  0.00000000000E+00  0.14999999963E+04  0.15000000000E+04  0.10566000000E+00 0.  1.
        994   -1    0    0    0    0 -0.00000000000E+00 -0.00000000000E+00  0.11368683772E-12  0.17120000000E+03  0.17120000000E+03 0.  0.
         13    1    1    2    0    0 -0.10697724608E+02  0.46068749619E+01  0.10971708525E+02  0.16001692432E+02  0.10566000000E+00 0.  1.
        994    1    1    2    0    0 -0.82407733793E+01  0.47019409334E+02  0.13100702463E+02  0.17821280427E+03  0.17120000000E+03 0.  0.
        998    1    1    2    0    0  0.18938497987E+02 -0.51626284296E+02  0.14759275853E+04  0.14769855033E+04  0.10000000000E+02 0.  1.
</event>
<event>
 5    1  0.1533416E-008  0.3862393E+03  0.7957747E-01  0.3424433E+00
         13   -1    0    0    0    0  0.00000000000E+00  0.00000000000E+00  0.14999999963E+04  0.15000000000E+04  0.10566000000E+00 0.  1.
        994   -1    0    0    0    0 -0.00000000000E+00 -0.00000000000E+00  0.11368683772E-12  0.17120000000E+03  0.17120000000E+03 0.  0.
         13    1    1    2    0    0  0.96514366692E+01 -0.60430897971E+01  0.63255982061E+02  0.64272852704E+02  0.10566000000E+00 0.  1.
        994    1    1    2    0    0 -0.86582612661E+01  0.64242631738E+01  0.13969235702E+01  0.17154482808E+03  0.17120000000E+03 0.  0.
        998    1    1    2    0    0 -0.99317540310E+00 -0.38117337676E+00  0.14353470906E+04  0.14353823192E+04  0.10000000000E+02 0.  1.
</event>
<event>
 5    1  0.1533416E-008  0.3817673E+03  0.7957747E-01  0.3443499E+00
         13   -1    0    0    0    0  0.00000000000E+00  0.00000000000E+00  0.14999999963E+04  0.15000000000E+04  0.10566000000E+00 0.  1.
        994   -1    0    0    0    0 -0.00000000000E+00 -0.00000000000E+00  0.11368683772E-12  0.17120000000E+03  0.17120000000E+03 0.  0.
         13    1    1    2    0    0  0.16660607529E+02  0.44157468349E+01  0.45213097385E+02  0.48387085079E+02  0.10566000000E+00 0.  1.
        994    1    1    2    0    0 -0.97768445484E+01  0.45837010974E+01  0.36312908351E+01  0.17157862127E+03  0.17120000000E+03 0.  0.
        998    1    1    2    0    0 -0.68837629804E+01 -0.89994479323E+01  0.14511556081E+04  0.14512342936E+04  0.10000000000E+02 0.  1.
</event>
<event>
 5    1  0.1533416E-008  0.3722588E+03  0.7957747E-01  0.3485574E+00
         13   -1    0    0    0    0  0.00000000000E+00  0.00000000000E+00  0.14999999963E+04  0.15000000000E+04  0.10566000000E+00 0. -1.
        994   -1    0    0    0    0 -0.00000000000E+00 -0.00000000000E+00  0.11368683772E-12  0.17120000000E+03  0.17120000000E+03 0.  0.
         13    1    1    2    0    0  0.96338102290E+01  0.63912548660E+01  0.43838434110E+01  0.12364775994E+02  0.10566000000E+00 0. -1.
        994    1    1    2    0    0 -0.29296599682E+02  0.11045780287E+02  0.11463908881E+02  0.17441663115E+03  0.17120000000E+03 0.  0.
        998    1    1    2    0    0  0.19662789453E+02 -0.17437035152E+02  0.14841522440E+04  0.14844185929E+04  0.10000000000E+02 0. -1.
</event>
<event>
 5    1  0.1533416E-008  0.3693917E+03  0.7957747E-01  0.3498691E+00
         13   -1    0    0    0    0  0.00000000000E+00  0.00000000000E+00  0.14999999963E+04  0.15000000000E+04  0.10566000000E+00 0. -1.
        994   -1    0    0    0    0 -0.00000000000E+00 -0.00000000000E+00  0.11368683772E-12  0.17120000000E+03  0.17120000000E+03 0.  0.
         13    1    1    2    0    0  0.39299660628E+02 -0.36154585249E+02  0.16742180527E+03  0.17573186792E+03  0.10566000000E+00 0. -1.
        994    1    1    2    0    0 -0.13447259517E+02 -0.10467534099E+02  0.10594210696E+02  0.17237191001E+03  0.17120000000E+03 0.  0.
        998    1    1    2    0    0 -0.25852401111E+02  0.46622119348E+02  0.13219839803E+04  0.13230962221E+04  0.10000000000E+02 0. -1.
</event>
<event>
 5    1  0.1533416E-008  0.3812027E+03  0.7957747E-01  0.3445938E+00
         13   -1    0    0    0    0  0.00000000000E+00  0.00000000000E+00  0.14999999963E+04  0.15000000000E+04  0.10566000000E+00 0. -1.
        994   -1    0    0    0    0 -0.00000000000E+00 -0.00000000000E+00  0.11368683772E-12  0.17120000000E+03  0.17120000000E+03 0.  0.
         13    1    1    2    0    0 -0.24357478761E+01 -0.16012349816E+02  0.35936390681E+02  0.39417807569E+02  0.10566000000E+00 0. -1.
        994    1    1    2    0    0  0.58129381446E+01  0.95753344093E+01  0.39451771373E+01  0.17161142649E+03  0.17120000000E+03 0.  0.
        998    1    1    2    0    0 -0.33771902685E+01  0.64370154070E+01  0.14601184285E+04  0.14601707659E+04  0.10000000000E+02 0. -1.
</event>
<event>
 5    1  0.1533416E-008  0.3631660E+03  0.7957747E-01  0.3527900E+00
         13   -1    0    0    0    0  0.00000000000E+00  0.00000000000E+00  0.14999999963E+04  0.15000000000E+04  0.10566000000E+00 0. -1.
        994   -1    0    0    0    0 -0.00000000000E+00 -0.00000000000E+00  0.11368683772E-12  0.17120000000E+03  0.17120000000E+03 0.  0.
         13    1    1    2    0    0 -0.17903595697E+02 -0.28044090815E+03  0.94727820144E+03  0.98808078809E+03  0.10566000000E+00 0. -1.
        994    1    1    2    0    0  0.41962510907E+02  0.27395788532E+03  0.34815005616E+03  0.47679311746E+03  0.17120000000E+03 0.  0.
        998    1    1    2    0    0 -0.24058915210E+02  0.64830228298E+01  0.20457173868E+03  0.20632609445E+03  0.10000000000E+02 0. -1.
</event>
<event>
 5    1  0.1533416E-008  0.3854238E+03  0.7957747E-01  0.3427877E+00
         13   -1    0    0    0    0  0.00000000000E+00  0.00000000000E+00  0.14999999963E+04  0.15000000000E+04  0.10566000000E+00 0.  1.
        994   -1    0    0    0    0 -0.00000000000E+00 -0.00000000000E+00  0.11368683772E-12  0.17120000000E+03  0.17120000000E+03 0.  0.
         13    1    1    2    0    0 -0.18369532770E+01  0.13421182204E+02  0.64809825735E+02  0.66210476550E+02  0.10566000000E+00 0.  1.
        994    1    1    2    0    0 -0.14169648587E+01 -0.94483089826E+01  0.17197258301E+01  0.17147500048E+03  0.17120000000E+03 0.  0.
        998    1    1    2    0    0  0.32539181358E+01 -0.39728732217E+01  0.14334704447E+04  0.14335145230E+04  0.10000000000E+02 0.  1.
</event>
<event>
 5    1  0.1533416E-008  0.3759464E+03  0.7957747E-01  0.3469001E+00
         13   -1    0    0    0    0  0.00000000000E+00  0.00000000000E+00  0.14999999963E+04  0.15000000000E+04  0.10566000000E+00 0.  1.
        994   -1    0    0    0    0 -0.00000000000E+00 -0.00000000000E+00  0.11368683772E-12  0.17120000000E+03  0.17120000000E+03 0.  0.
         13    1    1    2    0    0  0.27052933498E+02 -0.56813125733E+02  0.13103740879E+03  0.14536301501E+03  0.10566000000E+00 0.  1.
        994    1    1    2    0    0 -0.18898367160E+02  0.45611959946E+02  0.22873190650E+02  0.17963914390E+03  0.17120000000E+03 0.  0.
        998    1    1    2    0    0 -0.81545663374E+01  0.11201165787E+02  0.13460893968E+04  0.13461978411E+04  0.10000000000E+02 0.  1.
</event>
<event>
 5    1  0.1533416E-008  0.3803468E+03  0.7957747E-01  0.3449650E+00
         13   -1    0    0    0    0  0.00000000000E+00  0.00000000000E+00  0.14999999963E+04  0.15000000000E+04  0.10566000000E+00 0.  1.
        994   -1    0    0    0    0 -0.00000000000E+00 -0.00000000000E+00  0.11368683772E-12  0.17120000000E+03  0.17120000000E+03 0.  0.
         13    1    1    2    0    0  0.22448527804E+02  0.14794265293E+02  0.10355501767E+03  0.10698812801E+03  0.10566000000E+00 0.  1.
        994    1    1    2    0    0  0.17289034838E+02 -0.95824399807E+01  0.52639625422E+01  0.17241775774E+03  0.17120000000E+03 0.  0.
        998    1    1    2    0    0 -0.39737562642E+02 -0.52118253123E+01  0.13911810161E+04  0.13917941143E+04  0.10000000000E+02 0.  1.
</event>
<event>
 5    1  0.1533416E-008  0.3827954E+03  0.7957747E-01  0.3439076E+00
         13   -1    0    0    0    0  0.00000000000E+00  0.00000000000E+00  0.14999999963E+04  0.15000000000E+04  0.10566000000E+00 0. -1.
        994   -1    0    0    0    0 -0.00000000000E+00 -0.00000000000E+00  0.11368683772E-12  0.17120000000E+03  0.17120000000E+03 0.  0.
         13    1    1    2    0    0  0.67668287071E+01  0.11055457789E+02  0.30760416782E+02  0.33380046770E+02  0.10566000000E+00 0. -1.
        994    1    1    2    0    0  0.40580773913E+01 -0.30302404325E+01  0.28136391457E+01  0.17129800616E+03  0.17120000000E+03 0.  0.
        998    1    1    2    0    0 -0.10824906098E+02 -0.80252173567E+01  0.14664259404E+04  0.14665219471E+04  0.10000000000E+02 0. -1.
</event>
<event>
 5    1  0.1533416E-008  0.3860256E+03  0.7957747E-01  0.3425334E+00
         13   -1    0    0    0    0  0.00000000000E+00  0.00000000000E+00  0.14999999963E+04  0.15000000000E+04  0.10566000000E+00 0. -1.
        994   -1    0    0    0    0 -0.00000000000E+00 -0.00000000000E+00  0.11368683772E-12  0.17120000000E+03  0.17120000000E+03 0.  0.
         13    1    1    2    0    0  0.32684357644E+01 -0.11335191537E+02  0.60431851535E+02  0.61572632586E+02  0.10566000000E+00 0. -1.
        994    1    1    2    0    0  0.25738880880E+01  0.14492614459E+02  0.18322651303E+01  0.17184137444E+03  0.17120000000E+03 0.  0.
        998    1    1    2    0    0 -0.58423238524E+01 -0.31574229223E+01  0.14377358796E+04  0.14377859930E+04  0.10000000000E+02 0. -1.
</event>
<event>
 5    1  0.1533416E-008  0.3764212E+03  0.7957747E-01  0.3466891E+00
         13   -1    0    0    0    0  0.00000000000E+00  0.00000000000E+00  0.14999999963E+04  0.15000000000E+04  0.10566000000E+00 0.  1.
        994   -1    0    0    0    0 -0.00000000000E+00 -0.00000000000E+00  0.11368683772E-12  0.17120000000E+03  0.17120000000E+03 0.  0.
         13    1    1    2    0    0  0.25725962860E+02  0.36123701781E+02  0.16022826906E+03  0.16625238755E+03  0.10566000000E+00 0.  1.
        994    1    1    2    0    0 -0.34193973974E+02 -0.12143008889E+02  0.10417986190E+02  0.17531301993E+03  0.17120000000E+03 0.  0.
        998    1    1    2    0    0  0.84680111139E+01 -0.23980692892E+02  0.13293537410E+04  0.13296345925E+04  0.10000000000E+02 0.  1.
</event>
<event>
 5    1  0.1533416E-008  0.3776767E+03  0.7957747E-01  0.3461338E+00
         13   -1    0    0    0    0  0.00000000000E+00  0.00000000000E+00  0.14999999963E+04  0.15000000000E+04  0.10566000000E+00 0.  1.
        994   -1    0    0    0    0 -0.00000000000E+00 -0.00000000000E+00  0.11368683772E-12  0.17120000000E+03  0.17120000000E+03 0.  0.
         13    1    1    2    0    0  0.39257804163E+02 -0.79910081562E+01  0.21569037070E+03  0.21937953089E+03  0.10566000000E+00 0.  1.
        994    1    1    2    0    0  0.32737364260E+02  0.47846596599E+02  0.16718082313E+02  0.18152125523E+03  0.17120000000E+03 0.  0.
        998    1    1    2    0    0 -0.71995168423E+02 -0.39855588443E+02  0.12675915433E+04  0.12702992139E+04  0.10000000000E+02 0.  1.
</event>
<event>
 5    1  0.1533416E-008  0.3751664E+03  0.7957747E-01  0.3472479E+00
         13   -1    0    0    0    0  0.00000000000E+00  0.00000000000E+00  0.14999999963E+04  0.15000000000E+04  0.10566000000E+00 0.  1.
        994   -1    0    0    0    0 -0.00000000000E+00 -0.00000000000E+00  0.11368683772E-12  0.17120000000E+03  0.17120000000E+03 0.  0.
         13    1    1    2    0    0  0.33921965856E+02  0.14508349208E+02  0.42801385431E+02  0.56508067770E+02  0.10566000000E+00 0.  1.
        994    1    1    2    0    0 -0.36497548679E+02 -0.17206776663E+02  0.19516578719E+02  0.17697028301E+03  0.17120000000E+03 0.  0.
        998    1    1    2    0    0  0.25755828234E+01  0.26984274550E+01  0.14376820321E+04  0.14377216492E+04  0.10000000000E+02 0.  1.
</event>
<event>
 5    1  0.1533416E-008  0.3755046E+03  0.7957747E-01  0.3470969E+00
         13   -1    0    0    0    0  0.00000000000E+00  0.00000000000E+00  0.14999999963E+04  0.15000000000E+04  0.10566000000E+00 0. -1.
        994   -1    0    0    0    0 -0.00000000000E+00 -0.00000000000E+00  0.11368683772E-12  0.17120000000E+03  0.17120000000E+03 0.  0.
         13    1    1    2    0    0 -0.32608797147E+00 -0.49703294211E+02  0.19177379078E+03  0.19811037778E+03  0.10566000000E+00 0. -1.
        994    1    1    2    0    0 -0.61084881847E+02  0.31798090543E+02  0.22686960875E+02  0.18592100351E+03  0.17120000000E+03 0.  0.
        998    1    1    2    0    0  0.61410969819E+02  0.17905203667E+02  0.12855392446E+04  0.12871686187E+04  0.10000000000E+02 0. -1.
</event>
<event>
 5    1  0.1533416E-008  0.3823147E+03  0.7957747E-01  0.3441141E+00
         13   -1    0    0    0    0  0.00000000000E+00  0.00000000000E+00  0.14999999963E+04  0.15000000000E+04  0.10566000000E+00 0. -1.
        994   -1    0    0    0    0 -0.00000000000E+00 -0.00000000000E+00  0.11368683772E-12  0.17120000000E+03  0.17120000000E+03 0.  0.
         13    1    1    2    0    0  0.11142358912E+02 -0.19606739940E+00  0.19692159417E+02  0.22627039380E+02  0.10566000000E+00 0. -1.
        994    1    1    2    0    0 -0.89611548877E+01 -0.34943396770E+01  0.32762203000E+01  0.17150127208E+03  0.17120000000E+03 0.  0.
        998    1    1    2    0    0 -0.21812040243E+01  0.36904070764E+01  0.14770316166E+04  0.14770716885E+04  0.10000000000E+02 0. -1.
</event>
<event>
 5    1  0.1533416E-008  0.3766162E+03  0.7957747E-01  0.3466026E+00
         13   -1    0    0    0    0  0.00000000000E+00  0.00000000000E+00  0.14999999963E+04  0.15000000000E+04  0.10566000000E+00 0. -1.
        994   -1    0    0    0    0 -0.00000000000E+00 -0.00000000000E+00  0.11368683772E-12  0.17120000000E+03  0.17120000000E+03 0.  0.
         13    1    1    2    0    0 -0.47606066146E+01  0.63353558600E+02  0.28370866056E+03  0.29073519224E+03  0.10566000000E+00 0. -1.
        994    1    1    2    0    0  0.59773153224E+01 -0.61177978400E+02  0.18733856488E+02  0.18286298346E+03  0.17120000000E+03 0.  0.
        998    1    1    2    0    0 -0.12167087078E+01 -0.21755802002E+01  0.11975574792E+04  0.11976018243E+04  0.10000000000E+02 0. -1.
</event>
<event>
 5    1  0.1533416E-008  0.3857941E+03  0.7957747E-01  0.3426311E+00
         13   -1    0    0    0    0  0.00000000000E+00  0.00000000000E+00  0.14999999963E+04  0.15000000000E+04  0.10566000000E+00 0.  1.
        994   -1    0    0    0    0 -0.00000000000E+00 -0.00000000000E+00  0.11368683772E-12  0.17120000000E+03  0.17120000000E+03 0.  0.
         13    1    1    2    0    0  0.20348979119E+00 -0.13103373415E+02  0.66220253370E+02  0.67504614089E+02  0.10566000000E+00 0.  1.
        994    1    1    2    0    0 -0.25882939477E+02  0.17056485610E+02  0.43945305472E+01  0.17403908227E+03  0.17120000000E+03 0.  0.
        998    1    1    2    0    0  0.25679449685E+02 -0.39531121954E+01  0.14293852124E+04  0.14296563036E+04  0.10000000000E+02 0.  1.
</event>
<event>
 5    1  0.1533416E-008  0.3824738E+03  0.7957747E-01  0.3440457E+00
         13   -1    0    0    0    0  0.00000000000E+00  0.00000000000E+00  0.14999999963E+04  0.15000000000E+04  0.10566000000E+00 0. -1.
        994   -1    0    0    0    0 -0.00000000000E+00 -0.00000000000E+00  0.11368683772E-12  0.17120000000E+03  0.17120000000E+03 0.  0.
         13    1    1    2    0    0  0.25545262592E+02 -0.21598514226E+02  0.17783934232E+03  0.18095827999E+03  0.10566000000E+00 0. -1.
        994    1    1    2    0    0 -0.21299421534E+02  0.20609016466E+02  0.58076453158E+01  0.17384350912E+03  0.17120000000E+03 0.  0.
        998    1    1    2    0    0 -0.42458410587E+01  0.98949776024E+00  0.13163530086E+04  0.13163982109E+04  0.10000000000E+02 0. -1.
</event>
<event>
 5    1  0.1533416E-008  0.3971458E+03  0.7957747E-01  0.3379739E+00
         13   -1    0    0    0    0  0.00000000000E+00  0.00000000000E+00  0.14999999963E+04  0.15000000000E+04  0.10566000000E+00 0.  1.
        994   -1    0    0    0    0 -0.00000000000E+00 -0.00000000000E+00  0.11368683772E-12  0.17120000000E+03  0.17120000000E+03 0.  0.
         13    1    1    2    0    0  0.28703761743E+02 -0.13914649299E+02  0.86426438455E+01  0.33048901041E+02  0.10566000000E+00 0.  1.
        994    1    1    2    0    0 -0.40861953895E+02 -0.13278461474E+03  0.10542527496E+03  0.24438776931E+03  0.17120000000E+03 0.  0.
        998    1    1    2    0    0  0.12158192152E+02  0.14669926404E+03  0.13859320775E+04  0.13937633297E+04  0.10000000000E+02 0.  1.
</event>
<event>
 5    1  0.1533416E-008  0.3794231E+03  0.7957747E-01  0.3453674E+00
         13   -1    0    0    0    0  0.00000000000E+00  0.00000000000E+00  0.14999999963E+04  0.15000000000E+04  0.10566000000E+00 0. -1.
        994   -1    0    0    0    0 -0.00000000000E+00 -0.00000000000E+00  0.11368683772E-12  0.17120000000E+03  0.17120000000E+03 0.  0.
         13    1    1    2    0    0 -0.37935031708E+02  0.10329183757E+01  0.20250249806E+03  0.20602768367E+03  0.10566000000E+00 0. -1.
        994    1    1    2    0    0 -0.83102208285E+01  0.11646501912E+00  0.46560206807E+01  0.17146484148E+03  0.17120000000E+03 0.  0.
        998    1    1    2    0    0  0.46245252537E+02 -0.11493833948E+01  0.12928414775E+04  0.12937074749E+04  0.10000000000E+02 0. -1.
</event>
<event>
 5    1  0.1533416E-008  0.3700931E+03  0.7957747E-01  0.3495463E+00
         13   -1    0    0    0    0  0.00000000000E+00  0.00000000000E+00  0.14999999963E+04  0.15000000000E+04  0.10566000000E+00 0.  1.
        994   -1    0    0    0    0 -0.00000000000E+00 -0.00000000000E+00  0.11368683772E-12  0.17120000000E+03  0.17120000000E+03 0.  0.
         13    1    1    2    0    0  0.11239469299E+01 -0.12682690601E+02  0.45759993736E+01  0.13530145302E+02  0.10566000000E+00 0.  1.
        994    1    1    2    0    0  0.30949528534E+01  0.83149704716E+01  0.94925577768E+01  0.17169235895E+03  0.17120000000E+03 0.  0.
        998    1    1    2    0    0 -0.42188997832E+01  0.43677201292E+01  0.14859314391E+04  0.14859774958E+04  0.10000000000E+02 0.  1.
</event>
<event>
 5    1  0.1533416E-008  0.3728566E+03  0.7957747E-01  0.3482865E+00
         13   -1    0    0    0    0  0.00000000000E+00  0.00000000000E+00  0.14999999963E+04  0.15000000000E+04  0.10566000000E+00 0.  1.
        994   -1    0    0    0    0 -0.00000000000E+00 -0.00000000000E+00  0.11368683772E-12  0.17120000000E+03  0.17120000000E+03 0.  0.
         13    1    1    2    0    0  0.19195488760E+02  0.86297454831E+02  0.24754543849E+03  0.26285827508E+03  0.10566000000E+00 0.  1.
        994    1    1    2    0    0 -0.19032786653E+02 -0.93528345304E+02  0.45365566160E+02  0.20118964421E+03  0.17120000000E+03 0.  0.
        998    1    1    2    0    0 -0.16270210634E+00  0.72308904737E+01  0.12070889916E+04  0.12071520807E+04  0.10000000000E+02 0.  1.
</event>
<event>
 5    1  0.1533416E-008  0.3856639E+03  0.7957747E-01  0.3426861E+00
         13   -1    0    0    0    0  0.00000000000E+00  0.00000000000E+00  0.14999999963E+04  0.15000000000E+04  0.10566000000E+00 0.  1.
        994   -1    0    0    0    0 -0.00000000000E+00 -0.00000000000E+00  0.11368683772E-12  0.17120000000E+03  0.17120000000E+03 0.  0.
         13    1    1    2    0    0  0.87341355411E+01  0.55574616814E+01  0.42503206105E+02  0.43745904920E+02  0.10566000000E+00 0.  1.
        994    1    1    2    0    0  0.18298113101E+01 -0.76828750124E+01  0.15055944643E+01  0.17138868572E+03  0.17120000000E+03 0.  0.
        998    1    1    2    0    0 -0.10563946851E+02  0.21254133311E+01  0.14559911957E+04  0.14560654094E+04  0.10000000000E+02 0.  1.
</event>
<event>
 5    1  0.1533416E-008  0.3827715E+03  0.7957747E-01  0.3439179E+00
         13   -1    0    0    0    0  0.00000000000E+00  0.00000000000E+00  0.14999999963E+04  0.15000000000E+04  0.10566000000E+00 0.  1.
        994   -1    0    0    0    0 -0.00000000000E+00 -0.00000000000E+00  0.11368683772E-12  0.17120000000E+03  0.17120000000E+03 0.  0.
         13    1    1    2    0    0  0.21263410437E+02 -0.52918036749E+01  0.82104446140E+02  0.84978156308E+02  0.10566000000E+00 0.  1.
        994    1    1    2    0    0 -0.22837784558E+02  0.65699754592E+01  0.46135582876E+01  0.17290301877E+03  0.17120000000E+03 0.  0.
        998    1    1    2    0    0  0.15743741212E+01 -0.12781717843E+01  0.14132819919E+04  0.14133188249E+04  0.10000000000E+02 0.  1.
</event>
<event>
 5    1  0.1533416E-008  0.3735720E+03  0.7957747E-01  0.3479634E+00
         13   -1    0    0    0    0  0.00000000000E+00  0.00000000000E+00  0.14999999963E+04  0.15000000000E+04  0.10566000000E+00 0.  1.
        994   -1    0    0    0    0 -0.00000000000E+00 -0.00000000000E+00  0.11368683772E-12  0.17120000000E+03  0.17120000000E+03 0.  0.
         13    1    1    2    0    0  0.17699867383E+02 -0.12626726700E+02  0.29402271396E+02  0.36568077059E+02  0.10566000000E+00 0.  1.
        994    1    1    2    0    0 -0.20678505073E+01  0.95358204421E+01  0.77391515116E+01  0.17165238811E+03  0.17120000000E+03 0.  0.
        998    1    1    2    0    0 -0.15632016876E+02  0.30909062578E+01  0.14628585734E+04  0.14629795348E+04  0.10000000000E+02 0.  1.
</event>
<event>
 5    1  0.1533416E-008  0.3784147E+03  0.7957747E-01  0.3458090E+00
         13   -1    0    0    0    0  0.00000000000E+00  0.00000000000E+00  0.14999999963E+04  0.15000000000E+04  0.10566000000E+00 0. -1.
        994   -1    0    0    0    0 -0.00000000000E+00 -0.00000000000E+00  0.11368683772E-12  0.17120000000E+03  0.17120000000E+03 0.  0.
         13    1    1    2    0    0 -0.11644153554E+02  0.30017248047E+01  0.12632343883E+02  0.17440869812E+02  0.10566000000E+00 0. -1.
        994    1    1    2    0    0  0.10143890064E+01 -0.89321830056E+01  0.52071549383E+01  0.17151491871E+03  0.17120000000E+03 0.  0.
        998    1    1    2    0    0  0.10629764548E+02  0.59304582009E+01  0.14821604975E+04  0.14822442115E+04  0.10000000000E+02 0. -1.
</event>
<event>
 5    1  0.1533416E-008  0.2224052E+03  0.7957747E-01  0.4674852E+00
         13   -1    0    0    0    0  0.00000000000E+00  0.00000000000E+00  0.14999999963E+04  0.15000000000E+04  0.10566000000E+00 0. -1.
        994   -1    0    0    0    0 -0.00000000000E+00 -0.00000000000E+00  0.11368683772E-12  0.17120000000E+03  0.17120000000E+03 0.  0.
         13    1    1    2    0    0 -0.49468164775E+01 -0.68753221171E+02 -0.32496423813E+01  0.69007592004E+02  0.10566000000E+00 0. -1.
        994    1    1    2    0    0  0.22233171254E+01  0.76908179422E+02  0.12870257706E+03  0.22758208309E+03  0.17120000000E+03 0.  0.
        998    1    1    2    0    0  0.27234993521E+01 -0.81549582516E+01  0.13745470616E+04  0.13746103249E+04  0.10000000000E+02 0. -1.
</event>
<event>
 5    1  0.1533416E-008  0.3686832E+03  0.7957747E-01  0.3501965E+00
         13   -1    0    0    0    0  0.00000000000E+00  0.00000000000E+00  0.14999999963E+04  0.15000000000E+04  0.10566000000E+00 0. -1.
        994   -1    0    0    0    0 -0.00000000000E+00 -0.00000000000E+00  0.11368683772E-12  0.17120000000E+03  0.17120000000E+03 0.  0.
         13    1    1    2    0    0  0.49028802396E+01 -0.12084479479E+02  0.43772868902E+01  0.13756623259E+02  0.10566000000E+00 0. -1.
        994    1    1    2    0    0 -0.36341232393E+02 -0.47528977362E+02  0.22497860974E+02  0.18274376216E+03  0.17120000000E+03 0.  0.
        998    1    1    2    0    0  0.31438352153E+02  0.59613456841E+02  0.14731248484E+04  0.14746996146E+04  0.10000000000E+02 0. -1.
</event>
<event>
 5    1  0.1533416E-008  0.3837318E+03  0.7957747E-01  0.3435069E+00
         13   -1    0    0    0    0  0.00000000000E+00  0.00000000000E+00  0.14999999963E+04  0.15000000000E+04  0.10566000000E+00 0. -1.
        994   -1    0    0    0    0 -0.00000000000E+00 -0.00000000000E+00  0.11368683772E-12  0.17120000000E+03  0.17120000000E+03 0.  0.
         13    1    1    2    0    0 -0.13467944506E+02  0.25868615101E+01  0.41359277516E+02  0.43573826805E+02  0.10566000000E+00 0. -1.
        994    1    1    2    0    0  0.65782766515E+01 -0.37905961392E+01  0.24514758668E+01  0.17138579894E+03  0.17120000000E+03 0.  0.
        998    1    1    2    0    0  0.68896678546E+01  0.12037346291E+01  0.14561892429E+04  0.14562403743E+04  0.10000000000E+02 0. -1.
</event>
<event>
 5    1  0.1533416E-008  0.3863276E+03  0.7957747E-01  0.3424061E+00
         13   -1    0    0    0    0  0.00000000000E+00  0.00000000000E+00  0.14999999963E+04  0.15000000000E+04  0.10566000000E+00 0. -1.
        994   -1    0    0    0    0 -0.00000000000E+00 -0.00000000000E+00  0.11368683772E-12  0.17120000000E+03  0.17120000000E+03 0.  0.
         13    1    1    2    0    0  0.77885878956E+01 -0.73454491281E+01  0.61943766167E+02  0.62862222799E+02  0.10566000000E+00 0. -1.
        994    1    1    2    0    0  0.35488915232E+01  0.85608074432E+01  0.12537190098E+01  0.17145522409E+03  0.17120000000E+03 0.  0.
        998    1    1    2    0    0 -0.11337479419E+02 -0.12153583151E+01  0.14368025111E+04  0.14368825531E+04  0.10000000000E+02 0. -1.
</event>
<event>
 5    1  0.1533416E-008  0.3777979E+03  0.7957747E-01  0.3460803E+00
         13   -1    0    0    0    0  0.00000000000E+00  0.00000000000E+00  0.14999999963E+04  0.15000000000E+04  0.10566000000E+00 0. -1.
        994   -1    0    0    0    0 -0.00000000000E+00 -0.00000000000E+00  0.11368683772E-12  0.17120000000E+03  0.17120000000E+03 0.  0.
         13    1    1    2    0    0  0.18500860048E+02 -0.75066857795E+01  0.36882941376E+02  0.41940370558E+02  0.10566000000E+00 0. -1.
        994    1    1    2    0    0 -0.27537312504E+01  0.48477734008E+01  0.53535964968E+01  0.17137439989E+03  0.17120000000E+03 0.  0.
        998    1    1    2    0    0 -0.15747128797E+02  0.26589123788E+01  0.14577634584E+04  0.14578852296E+04  0.10000000000E+02 0. -1.
</event>
<event>
 5    1  0.1533416E-008  0.3853506E+03  0.7957747E-01  0.3428187E+00
         13   -1    0    0    0    0  0.00000000000E+00  0.00000000000E+00  0.14999999963E+04  0.15000000000E+04  0.10566000000E+00 0. -1.
        994   -1    0    0    0    0 -0.00000000000E+00 -0.00000000000E+00  0.11368683772E-12  0.17120000000E+03  0.17120000000E+03 0.  0.
         13    1    1    2    0    0 -0.21465172019E+01  0.17844942607E+02  0.10480946275E+03  0.10633947601E+03  0.10566000000E+00 0. -1.
        994    1    1    2    0    0 -0.34278666392E+01 -0.19169441923E+02  0.27028705349E+01  0.17232516729E+03  0.17120000000E+03 0.  0.
        998    1    1    2    0    0  0.55743838411E+01  0.13244993161E+01  0.13924876630E+04  0.13925353567E+04  0.10000000000E+02 0. -1.
</event>
<event>
 5    1  0.1533416E-008  0.3809966E+03  0.7957747E-01  0.3446831E+00
         13   -1    0    0    0    0  0.00000000000E+00  0.00000000000E+00  0.14999999963E+04  0.15000000000E+04  0.10566000000E+00 0.  1.
        994   -1    0    0    0    0 -0.00000000000E+00 -0.00000000000E+00  0.11368683772E-12  0.17120000000E+03  0.17120000000E+03 0.  0.
         13    1    1    2    0    0 -0.25292883422E+02  0.16033337669E+03  0.90010972439E+03  0.91462781979E+03  0.10566000000E+00 0.  1.
        994    1    1    2    0    0  0.20626283355E+02 -0.17362491182E+03  0.11327629898E+03  0.26965165210E+03  0.17120000000E+03 0.  0.
        998    1    1    2    0    0  0.46666000675E+01  0.13291535131E+02  0.48661397291E+03  0.48692052810E+03  0.10000000000E+02 0. -1.
</event>
<event>
 5    1  0.1533416E-008  0.3788397E+03  0.7957747E-01  0.3456226E+00
         13   -1    0    0    0    0  0.00000000000E+00  0.00000000000E+00  0.14999999963E+04  0.15000000000E+04  0.10566000000E+00 0. -1.
        994   -1    0    0    0    0 -0.00000000000E+00 -0.00000000000E+00  0.11368683772E-12  0.17120000000E+03  0.17120000000E+03 0.  0.
         13    1    1    2    0    0 -0.38154733145E+02  0.49230489817E+02  0.13203916039E+03  0.14599238278E+03  0.10566000000E+00 0. -1.
        994    1    1    2    0    0 -0.21040315492E+02 -0.28767711806E+02  0.20288451308E+02  0.17604356670E+03  0.17120000000E+03 0.  0.
        998    1    1    2    0    0  0.59195048637E+02 -0.20462778011E+02  0.13476723846E+04  0.13491640505E+04  0.10000000000E+02 0. -1.
</event>
<event>
 5    1  0.1533416E-008  0.3768509E+03  0.7957747E-01  0.3464986E+00
         13   -1    0    0    0    0  0.00000000000E+00  0.00000000000E+00  0.14999999963E+04  0.15000000000E+04  0.10566000000E+00 0. -1.
        994   -1    0    0    0    0 -0.00000000000E+00 -0.00000000000E+00  0.11368683772E-12  0.17120000000E+03  0.17120000000E+03 0.  0.
         13    1    1    2    0    0  0.93437513536E+01  0.23537512854E+02  0.50662454607E+02  0.56639347379E+02  0.10566000000E+00 0. -1.
        994    1    1    2    0    0 -0.39415491197E+01 -0.35092610367E+02  0.99554883844E+01  0.17508734638E+03  0.17120000000E+03 0.  0.
        998    1    1    2    0    0 -0.54022022339E+01  0.11555097513E+02  0.14393820533E+04  0.14394733062E+04  0.10000000000E+02 0. -1.
</event>
<event>
 5    1  0.1533416E-008  0.3807850E+03  0.7957747E-01  0.3447747E+00
         13   -1    0    0    0    0  0.00000000000E+00  0.00000000000E+00  0.14999999963E+04  0.15000000000E+04  0.10566000000E+00 0. -1.
        994   -1    0    0    0    0 -0.00000000000E+00 -0.00000000000E+00  0.11368683772E-12  0.17120000000E+03  0.17120000000E+03 0.  0.
         13    1    1    2    0    0 -0.34670405749E+01 -0.10452124390E+02  0.14450862689E+02  0.18168815897E+02  0.10566000000E+00 0. -1.
        994    1    1    2    0    0  0.51916301164E+01  0.11789281521E+02  0.42908783438E+01  0.17173756671E+03  0.17120000000E+03 0.  0.
        998    1    1    2    0    0 -0.17245895416E+01 -0.13371571311E+01  0.14812582552E+04  0.14812936174E+04  0.10000000000E+02 0. -1.
</event>
<event>
 5    1  0.1533416E-008  0.3854815E+03  0.7957747E-01  0.3427633E+00
         13   -1    0    0    0    0  0.00000000000E+00  0.00000000000E+00  0.14999999963E+04  0.15000000000E+04  0.10566000000E+00 0. -1.
        994   -1    0    0    0    0 -0.00000000000E+00 -0.00000000000E+00  0.11368683772E-12  0.17120000000E+03  0.17120000000E+03 0.  0.
         13    1    1    2    0    0  0.49917555640E+01 -0.13520897198E+02  0.74580273593E+02  0.75960257095E+02  0.10566000000E+00 0. -1.
        994    1    1    2    0    0 -0.11692608929E+01  0.10530949764E+02  0.17599725224E+01  0.17153660128E+03  0.17120000000E+03 0.  0.
        998    1    1    2    0    0 -0.38224946710E+01  0.29899474336E+01  0.14236597502E+04  0.14237031416E+04  0.10000000000E+02 0. -1.
</event>
<event>
 5    1  0.1533416E-008  0.3824671E+03  0.7957747E-01  0.3440486E+00
         13   -1    0    0    0    0  0.00000000000E+00  0.00000000000E+00  0.14999999963E+04  0.15000000000E+04  0.10566000000E+00 0.  1.
        994   -1    0    0    0    0 -0.00000000000E+00 -0.00000000000E+00  0.11368683772E-12  0.17120000000E+03  0.17120000000E+03 0.  0.
         13    1    1    2    0    0  0.33670161602E+01 -0.17208570824E+02  0.48835720991E+02  0.51888442994E+02  0.10566000000E+00 0.  1.
        994    1    1    2    0    0 -0.13044139277E+02  0.25139704747E+02  0.55573430156E+01  0.17361589324E+03  0.17120000000E+03 0.  0.
        998    1    1    2    0    0  0.96771231172E+01 -0.79311339234E+01  0.14456069323E+04  0.14456956638E+04  0.10000000000E+02 0.  1.
</event>
<event>
 5    1  0.1533416E-008  0.3746547E+03  0.7957747E-01  0.3474769E+00
         13   -1    0    0    0    0  0.00000000000E+00  0.00000000000E+00  0.14999999963E+04  0.15000000000E+04  0.10566000000E+00 0. -1.
        994   -1    0    0    0    0 -0.00000000000E+00 -0.00000000000E+00  0.11368683772E-12  0.17120000000E+03  0.17120000000E+03 0.  0.
         13    1    1    2    0    0  0.20310626449E+02  0.56013713693E+02  0.12630495301E+03  0.13965317750E+03  0.10566000000E+00 0. -1.
        994    1    1    2    0    0 -0.27552409335E+02 -0.33680092993E+02  0.20181380716E+02  0.17779260967E+03  0.17120000000E+03 0.  0.
        998    1    1    2    0    0  0.72417828860E+01 -0.22333620700E+02  0.13535136626E+04  0.13537542128E+04  0.10000000000E+02 0. -1.
</event>
<event>
 5    1  0.1533416E-008  0.3850935E+03  0.7957747E-01  0.3429276E+00
         13   -1    0    0    0    0  0.00000000000E+00  0.00000000000E+00  0.14999999963E+04  0.15000000000E+04  0.10566000000E+00 0.  1.
        994   -1    0    0    0    0 -0.00000000000E+00 -0.00000000000E+00  0.11368683772E-12  0.17120000000E+03  0.17120000000E+03 0.  0.
         13    1    1    2    0    0  0.23798436329E+01  0.14694552096E+02  0.74553400258E+02  0.76025089090E+02  0.10566000000E+00 0.  1.
        994    1    1    2    0    0 -0.25122529072E+01 -0.39844035232E+00  0.16049915696E+01  0.17122641784E+03  0.17120000000E+03 0.  0.
        998    1    1    2    0    0  0.13240927426E+00 -0.14296111744E+02  0.14238416045E+04  0.14239484931E+04  0.10000000000E+02 0.  1.
</event>
<event>
 5    1  0.1533416E-008  0.3820034E+03  0.7957747E-01  0.3442481E+00
         13   -1    0    0    0    0  0.00000000000E+00  0.00000000000E+00  0.14999999963E+04  0.15000000000E+04  0.10566000000E+00 0. -1.
        994   -1    0    0    0    0 -0.00000000000E+00 -0.00000000000E+00  0.11368683772E-12  0.17120000000E+03  0.17120000000E+03 0.  0.
         13    1    1    2    0    0  0.43569136041E+02  0.47374077255E+01  0.25301784756E+03  0.25678542598E+03  0.10566000000E+00 0. -1.
        994    1    1    2    0    0 -0.45060375636E+02 -0.82525826401E+01  0.10125911309E+02  0.17751201833E+03  0.17120000000E+03 0.  0.
        998    1    1    2    0    0  0.14912395951E+01  0.35151749146E+01  0.12368562374E+04  0.12369025557E+04  0.10000000000E+02 0.  0.
</event>
<event>
 5    1  0.1533416E-008  0.3812591E+03  0.7957747E-01  0.3445694E+00
         13   -1    0    0    0    0  0.00000000000E+00  0.00000000000E+00  0.14999999963E+04  0.15000000000E+04  0.10566000000E+00 0. -1.
        994   -1    0    0    0    0 -0.00000000000E+00 -0.00000000000E+00  0.11368683772E-12  0.17120000000E+03  0.17120000000E+03 0.  0.
         13    1    1    2    0    0 -0.19190213121E+02 -0.28557487322E+02  0.18252056172E+03  0.18573519046E+03  0.10566000000E+00 0. -1.
        994    1    1    2    0    0  0.60678691376E+01  0.71239412608E+01  0.37905014862E+01  0.17149745618E+03  0.17120000000E+03 0.  0.
        998    1    1    2    0    0  0.13122343983E+02  0.21433546061E+02  0.13136889331E+04  0.13139673534E+04  0.10000000000E+02 0. -1.
</event>
<event>
 5    1  0.1533416E-008  0.3803047E+03  0.7957747E-01  0.3449833E+00
         13   -1    0    0    0    0  0.00000000000E+00  0.00000000000E+00  0.14999999963E+04  0.15000000000E+04  0.10566000000E+00 0.  1.
        994   -1    0    0    0    0 -0.00000000000E+00 -0.00000000000E+00  0.11368683772E-12  0.17120000000E+03  0.17120000000E+03 0.  0.
         13    1    1    2    0    0  0.47925349874E+02  0.27526550729E+02  0.30193352116E+03  0.30695017921E+03  0.10566000000E+00 0.  1.
        994    1    1    2    0    0 -0.49611456595E+02 -0.28468514690E+02  0.14983964608E+02  0.18112347211E+03  0.17120000000E+03 0.  0.
        998    1    1    2    0    0  0.16861067209E+01  0.94196396118E+00  0.11830825105E+04  0.11831263487E+04  0.10000000000E+02 0.  0.
</event>
<event>
 5    1  0.1533416E-008  0.3780705E+03  0.7957747E-01  0.3459603E+00
         13   -1    0    0    0    0  0.00000000000E+00  0.00000000000E+00  0.14999999963E+04  0.15000000000E+04  0.10566000000E+00 0. -1.
        994   -1    0    0    0    0 -0.00000000000E+00 -0.00000000000E+00  0.11368683772E-12  0.17120000000E+03  0.17120000000E+03 0.  0.
         13    1    1    2    0    0  0.15882481325E+02 -0.14842725610E+02  0.45801994338E+02  0.50699048965E+02  0.10566000000E+00 0. -1.
        994    1    1    2    0    0 -0.32009032356E+01  0.24850520672E+01  0.51655802222E+01  0.17132584301E+03  0.17120000000E+03 0.  0.
        998    1    1    2    0    0 -0.12681578089E+02  0.12357673543E+02  0.14490324217E+04  0.14491751080E+04  0.10000000000E+02 0. -1.
</event>
<event>
 5    1  0.1533416E-008  0.3772354E+03  0.7957747E-01  0.3463285E+00
         13   -1    0    0    0    0  0.00000000000E+00  0.00000000000E+00  0.14999999963E+04  0.15000000000E+04  0.10566000000E+00 0. -1.
        994   -1    0    0    0    0 -0.00000000000E+00 -0.00000000000E+00  0.11368683772E-12  0.17120000000E+03  0.17120000000E+03 0.  0.
         13    1    1    2    0    0 -0.11119873149E+02  0.73477779685E+01  0.13555460449E+02  0.19010604723E+02  0.10566000000E+00 0. -1.
        994    1    1    2    0    0  0.10548200476E+02 -0.45977251723E+01  0.59820811541E+01  0.17169050325E+03  0.17120000000E+03 0.  0.
        998    1    1    2    0    0  0.57167267312E+00 -0.27500527961E+01  0.14804624547E+04  0.14804988920E+04  0.10000000000E+02 0. -1.
</event>
<event>
 5    1  0.1533416E-008  0.3829586E+03  0.7957747E-01  0.3438376E+00
         13   -1    0    0    0    0  0.00000000000E+00  0.00000000000E+00  0.14999999963E+04  0.15000000000E+04  0.10566000000E+00 0. -1.
        994   -1    0    0    0    0 -0.00000000000E+00 -0.00000000000E+00  0.11368683772E-12  0.17120000000E+03  0.17120000000E+03 0.  0.
         13    1    1    2    0    0  0.13935047095E+02 -0.20051756394E+01  0.40475717819E+02  0.42854418254E+02  0.10566000000E+00 0. -1.
        994    1    1    2    0    0  0.14163013189E+02 -0.65365733026E+01  0.34529895554E+01  0.17194383057E+03  0.17120000000E+03 0.  0.
        998    1    1    2    0    0 -0.28098060284E+02  0.85417489420E+01  0.14560712889E+04  0.14564017512E+04  0.10000000000E+02 0. -1.
</event>
<event>
 5    1  0.1533416E-008  0.3855355E+03  0.7957747E-01  0.3427404E+00
         13   -1    0    0    0    0  0.00000000000E+00  0.00000000000E+00  0.14999999963E+04  0.15000000000E+04  0.10566000000E+00 0.  1.
        994   -1    0    0    0    0 -0.00000000000E+00 -0.00000000000E+00  0.11368683772E-12  0.17120000000E+03  0.17120000000E+03 0.  0.
         13    1    1    2    0    0  0.44673859818E+01  0.12241130568E+02  0.61441844599E+02  0.62808552338E+02  0.10566000000E+00 0.  1.
        994    1    1    2    0    0 -0.17903336411E+02 -0.58649890695E+01  0.25305867877E+01  0.17225205781E+03  0.17120000000E+03 0.  0.
        998    1    1    2    0    0  0.13435950429E+02 -0.63761414980E+01  0.14360275649E+04  0.14361393898E+04  0.10000000000E+02 0.  1.
</event>
<event>
 5    1  0.1533416E-008  0.3925038E+03  0.7957747E-01  0.3398458E+00
         13   -1    0    0    0    0  0.00000000000E+00  0.00000000000E+00  0.14999999963E+04  0.15000000000E+04  0.10566000000E+00 0.  1.
        994   -1    0    0    0    0 -0.00000000000E+00 -0.00000000000E+00  0.11368683772E-12  0.17120000000E+03  0.17120000000E+03 0.  0.
         13    1    1    2    0    0  0.23053812916E+01 -0.40293376715E+02  0.25413936232E+02  0.47694342524E+02  0.10566000000E+00 0.  1.
        994    1    1    2    0    0 -0.76738369999E+01  0.36546600047E+02  0.28688234446E+02  0.17755843135E+03  0.17120000000E+03 0.  0.
        998    1    1    2    0    0  0.53684557082E+01  0.37467766678E+01  0.14458978256E+04  0.14459472261E+04  0.10000000000E+02 0.  1.
</event>
<event>
 5    1  0.1533416E-008  0.3848378E+03  0.7957747E-01  0.3430360E+00
         13   -1    0    0    0    0  0.00000000000E+00  0.00000000000E+00  0.14999999963E+04  0.15000000000E+04  0.10566000000E+00 0.  1.
        994   -1    0    0    0    0 -0.00000000000E+00 -0.00000000000E+00  0.11368683772E-12  0.17120000000E+03  0.17120000000E+03 0.  0.
         13    1    1    2    0    0  0.10260627630E+02  0.11970687323E+02  0.77590601544E+02  0.79176325037E+02  0.10566000000E+00 0.  1.
        994    1    1    2    0    0 -0.55710354793E+01  0.39487713743E+01  0.18641233718E+01  0.17134626984E+03  0.17120000000E+03 0.  0.
        998    1    1    2    0    0 -0.46895921504E+01 -0.15919458698E+02  0.14205452714E+04  0.14206774051E+04  0.10000000000E+02 0.  1.
</event>
<event>
 5    1  0.1533416E-008  0.3847661E+03  0.7957747E-01  0.3430665E+00
         13   -1    0    0    0    0  0.00000000000E+00  0.00000000000E+00  0.14999999963E+04  0.15000000000E+04  0.10566000000E+00 0.  1.
        994   -1    0    0    0    0 -0.00000000000E+00 -0.00000000000E+00  0.11368683772E-12  0.17120000000E+03  0.17120000000E+03 0.  0.
         13    1    1    2    0    0 -0.16882935758E+02  0.48154530811E+01  0.83492296918E+02  0.85318209761E+02  0.10566000000E+00 0.  1.
        994    1    1    2    0    0  0.22044146006E+02  0.64106261552E+01  0.34828154730E+01  0.17276750419E+03  0.17120000000E+03 0.  0.
        998    1    1    2    0    0 -0.51612102484E+01 -0.11226079236E+02  0.14130248839E+04  0.14131142860E+04  0.10000000000E+02 0.  1.
</event>
<event>
 5    1  0.1533416E-008  0.3836683E+03  0.7957747E-01  0.3435340E+00
         13   -1    0    0    0    0  0.00000000000E+00  0.00000000000E+00  0.14999999963E+04  0.15000000000E+04  0.10566000000E+00 0.  1.
        994   -1    0    0    0    0 -0.00000000000E+00 -0.00000000000E+00  0.11368683772E-12  0.17120000000E+03  0.17120000000E+03 0.  0.
         13    1    1    2    0    0  0.98290689259E+01 -0.70656377134E+01  0.31454398791E+02  0.33703474592E+02  0.10566000000E+00 0.  1.
        994    1    1    2    0    0 -0.44878671426E+01  0.53549675272E+01  0.24539879858E+01  0.17136008487E+03  0.17120000000E+03 0.  0.
        998    1    1    2    0    0 -0.53412017833E+01  0.17106701862E+01  0.14660916095E+04  0.14661364405E+04  0.10000000000E+02 0.  1.
</event>
<event>
 5    1  0.1533416E-008  0.3821689E+03  0.7957747E-01  0.3441768E+00
         13   -1    0    0    0    0  0.00000000000E+00  0.00000000000E+00  0.14999999963E+04  0.15000000000E+04  0.10566000000E+00 0. -1.
        994   -1    0    0    0    0 -0.00000000000E+00 -0.00000000000E+00  0.11368683772E-12  0.17120000000E+03  0.17120000000E+03 0.  0.
         13    1    1    2    0    0  0.31607096368E+01  0.14398531446E+02  0.34436344585E+02  0.37459054788E+02  0.10566000000E+00 0. -1.
        994    1    1    2    0    0  0.24417175677E+01 -0.12343146013E+02  0.35679059146E+01  0.17169882117E+03  0.17120000000E+03 0.  0.
        998    1    1    2    0    0 -0.56024272045E+01 -0.20553854336E+01  0.14619957458E+04  0.14620421240E+04  0.10000000000E+02 0. -1.
</event>
<event>
 5    1  0.1533416E-008  0.3814974E+03  0.7957747E-01  0.3444665E+00
         13   -1    0    0    0    0  0.00000000000E+00  0.00000000000E+00  0.14999999963E+04  0.15000000000E+04  0.10566000000E+00 0. -1.
        994   -1    0    0    0    0 -0.00000000000E+00 -0.00000000000E+00  0.11368683772E-12  0.17120000000E+03  0.17120000000E+03 0.  0.
         13    1    1    2    0    0 -0.87140389384E+01 -0.65079942254E+01  0.16474903568E+02  0.19741379766E+02  0.10566000000E+00 0. -1.
        994    1    1    2    0    0  0.56052187691E+01 -0.88597159967E+01  0.37449048471E+01  0.17156158474E+03  0.17120000000E+03 0.  0.
        998    1    1    2    0    0  0.31088201693E+01  0.15367710222E+02  0.14797801879E+04  0.14798970355E+04  0.10000000000E+02 0. -1.
</event>
<event>
 5    1  0.1533416E-008  0.3822802E+03  0.7957747E-01  0.3441290E+00
         13   -1    0    0    0    0  0.00000000000E+00  0.00000000000E+00  0.14999999963E+04  0.15000000000E+04  0.10566000000E+00 0. -1.
        994   -1    0    0    0    0 -0.00000000000E+00 -0.00000000000E+00  0.11368683772E-12  0.17120000000E+03  0.17120000000E+03 0.  0.
         13    1    1    2    0    0 -0.47533517088E+01 -0.15960921257E+02  0.48464579762E+02  0.51246190252E+02  0.10566000000E+00 0. -1.
        994    1    1    2    0    0  0.63504994553E+01 -0.62658823981E+01  0.32506601618E+01  0.17146310658E+03  0.17120000000E+03 0.  0.
        998    1    1    2    0    0 -0.15971477465E+01  0.22226803655E+02  0.14482847564E+04  0.14484907032E+04  0.10000000000E+02 0. -1.
</event>
<event>
 5    1  0.1533416E-008  0.3710116E+03  0.7957747E-01  0.3491254E+00
         13   -1    0    0    0    0  0.00000000000E+00  0.00000000000E+00  0.14999999963E+04  0.15000000000E+04  0.10566000000E+00 0.  1.
        994   -1    0    0    0    0 -0.00000000000E+00 -0.00000000000E+00  0.11368683772E-12  0.17120000000E+03  0.17120000000E+03 0.  0.
         13    1    1    2    0    0  0.21157988770E+02 -0.53260828680E+02  0.13622369433E+03  0.14778796440E+03  0.10566000000E+00 0.  1.
        994    1    1    2    0    0 -0.58247118747E+02  0.88717500546E+02  0.48613382962E+02  0.20721057586E+03  0.17120000000E+03 0.  0.
        998    1    1    2    0    0  0.37089129976E+02 -0.35456671866E+02  0.13151629190E+04  0.13162014597E+04  0.10000000000E+02 0.  1.
</event>
<event>
 5    1  0.1533416E-008  0.3804573E+03  0.7957747E-01  0.3449170E+00
         13   -1    0    0    0    0  0.00000000000E+00  0.00000000000E+00  0.14999999963E+04  0.15000000000E+04  0.10566000000E+00 0. -1.
        994   -1    0    0    0    0 -0.00000000000E+00 -0.00000000000E+00  0.11368683772E-12  0.17120000000E+03  0.17120000000E+03 0.  0.
         13    1    1    2    0    0  0.34814220881E+02  0.36777398140E+02  0.23967832202E+03  0.24497003122E+03  0.10566000000E+00 0. -1.
        994    1    1    2    0    0 -0.77746369414E+02 -0.23622104718E+02  0.26264750149E+02  0.19131591384E+03  0.17120000000E+03 0.  0.
        998    1    1    2    0    0  0.42932148532E+02 -0.13155293422E+02  0.12340569241E+04  0.12349140549E+04  0.10000000000E+02 0. -1.
</event>
<event>
 5    1  0.1533416E-008  0.3832756E+03  0.7957747E-01  0.3437018E+00
         13   -1    0    0    0    0  0.00000000000E+00  0.00000000000E+00  0.14999999963E+04  0.15000000000E+04  0.10566000000E+00 0.  1.
        994   -1    0    0    0    0 -0.00000000000E+00 -0.00000000000E+00  0.11368683772E-12  0.17120000000E+03  0.17120000000E+03 0.  0.
         13    1    1    2    0    0 -0.12490394069E+02  0.36190546638E+01  0.33176451850E+02  0.35634191755E+02  0.10566000000E+00 0.  1.
        994    1    1    2    0    0  0.82000394152E+01 -0.37675905111E+01  0.27580367498E+01  0.17145985580E+03  0.17120000000E+03 0.  0.
        998    1    1    2    0    0  0.42903546535E+01  0.14853584731E+00  0.14640655077E+04  0.14641059524E+04  0.10000000000E+02 0.  1.
</event>
<event>
 5    1  0.1533416E-008  0.3843215E+03  0.7957747E-01  0.3432555E+00
         13   -1    0    0    0    0  0.00000000000E+00  0.00000000000E+00  0.14999999963E+04  0.15000000000E+04  0.10566000000E+00 0. -1.
        994   -1    0    0    0    0 -0.00000000000E+00 -0.00000000000E+00  0.11368683772E-12  0.17120000000E+03  0.17120000000E+03 0.  0.
         13    1    1    2    0    0  0.10386547231E+02  0.23312552762E+01  0.28212599255E+02  0.30154220854E+02  0.10566000000E+00 0. -1.
        994    1    1    2    0    0 -0.69692498204E+01 -0.57062959594E+01  0.22348441599E+01  0.17145135399E+03  0.17120000000E+03 0.  0.
        998    1    1    2    0    0 -0.34172974106E+01  0.33750406832E+01  0.14695525529E+04  0.14695944252E+04  0.10000000000E+02 0. -1.
</event>
<event>
 5    1  0.1533416E-008  0.3828746E+03  0.7957747E-01  0.3438736E+00
         13   -1    0    0    0    0  0.00000000000E+00  0.00000000000E+00  0.14999999963E+04  0.15000000000E+04  0.10566000000E+00 0. -1.
        994   -1    0    0    0    0 -0.00000000000E+00 -0.00000000000E+00  0.11368683772E-12  0.17120000000E+03  0.17120000000E+03 0.  0.
         13    1    1    2    0    0 -0.52324825273E+00 -0.15873119313E+02  0.43263580017E+02  0.46086638252E+02  0.10566000000E+00 0. -1.
        994    1    1    2    0    0 -0.16352290952E+02  0.26223806712E+02  0.58582009440E+01  0.17406563123E+03  0.17120000000E+03 0.  0.
        998    1    1    2    0    0  0.16875539204E+02 -0.10350687399E+02  0.14508782153E+04  0.14510477305E+04  0.10000000000E+02 0. -1.
</event>
<event>
 5    1  0.1533416E-008  0.3847745E+03  0.7957747E-01  0.3430629E+00
         13   -1    0    0    0    0  0.00000000000E+00  0.00000000000E+00  0.14999999963E+04  0.15000000000E+04  0.10566000000E+00 0.  1.
        994   -1    0    0    0    0 -0.00000000000E+00 -0.00000000000E+00  0.11368683772E-12  0.17120000000E+03  0.17120000000E+03 0.  0.
         13    1    1    2    0    0  0.32668184400E+01  0.13137451074E+02  0.54658405065E+02  0.56310009162E+02  0.10566000000E+00 0.  1.
        994    1    1    2    0    0  0.30119223336E+01 -0.25704418719E+01  0.17937446199E+01  0.17125517910E+03  0.17120000000E+03 0.  0.
        998    1    1    2    0    0 -0.62787407737E+01 -0.10567009202E+02  0.14435478466E+04  0.14436348117E+04  0.10000000000E+02 0.  1.
</event>
<event>
 5    1  0.1533416E-008  0.3795116E+03  0.7957747E-01  0.3453288E+00
         13   -1    0    0    0    0  0.00000000000E+00  0.00000000000E+00  0.14999999963E+04  0.15000000000E+04  0.10566000000E+00 0. -1.
        994   -1    0    0    0    0 -0.00000000000E+00 -0.00000000000E+00  0.11368683772E-12  0.17120000000E+03  0.17120000000E+03 0.  0.
         13    1    1    2    0    0  0.33369844351E+02 -0.29243186760E+02  0.24344770193E+03  0.24745808781E+03  0.10566000000E+00 0. -1.
        994    1    1    2    0    0 -0.79318488903E+01  0.13493326494E+02  0.52005948956E+01  0.17199264599E+03  0.17120000000E+03 0.  0.
        998    1    1    2    0    0 -0.25437995460E+02  0.15749860266E+02  0.12513516995E+04  0.12517492662E+04  0.10000000000E+02 0. -1.
</event>
<event>
 5    1  0.1533416E-008  0.3852601E+03  0.7957747E-01  0.3428570E+00
         13   -1    0    0    0    0  0.00000000000E+00  0.00000000000E+00  0.14999999963E+04  0.15000000000E+04  0.10566000000E+00 0.  1.
        994   -1    0    0    0    0 -0.00000000000E+00 -0.00000000000E+00  0.11368683772E-12  0.17120000000E+03  0.17120000000E+03 0.  0.
         13    1    1    2    0    0 -0.11227518166E+01  0.12626480456E+02  0.57698960097E+02  0.59075119472E+02  0.10566000000E+00 0.  1.
        994    1    1    2    0    0 -0.25791745741E+01  0.29328580037E+01  0.15511961422E+01  0.17125156936E+03  0.17120000000E+03 0.  0.
        998    1    1    2    0    0  0.37019263907E+01 -0.15559338460E+02  0.14407498400E+04  0.14408733112E+04  0.10000000000E+02 0.  1.
</event>
<event>
 5    1  0.1533416E-008  0.3853296E+03  0.7957747E-01  0.3428275E+00
         13   -1    0    0    0    0  0.00000000000E+00  0.00000000000E+00  0.14999999963E+04  0.15000000000E+04  0.10566000000E+00 0. -1.
        994   -1    0    0    0    0 -0.00000000000E+00 -0.00000000000E+00  0.11368683772E-12  0.17120000000E+03  0.17120000000E+03 0.  0.
         13    1    1    2    0    0 -0.11610482964E+01  0.10189063787E+02  0.37681955679E+02  0.39052605570E+02  0.10566000000E+00 0. -1.
        994    1    1    2    0    0 -0.17888812346E+01  0.25720291554E+01  0.14988105877E+01  0.17123522378E+03  0.17120000000E+03 0.  0.
        998    1    1    2    0    0  0.29499295309E+01 -0.12761092943E+02  0.14608192300E+04  0.14609121706E+04  0.10000000000E+02 0. -1.
</event>
<event>
 5    1  0.1533416E-008  0.3853716E+03  0.7957747E-01  0.3428098E+00
         13   -1    0    0    0    0  0.00000000000E+00  0.00000000000E+00  0.14999999963E+04  0.15000000000E+04  0.10566000000E+00 0.  1.
        994   -1    0    0    0    0 -0.00000000000E+00 -0.00000000000E+00  0.11368683772E-12  0.17120000000E+03  0.17120000000E+03 0.  0.
         13    1    1    2    0    0 -0.90131362420E+01  0.62255393597E+01  0.43907733994E+02  0.45253665418E+02  0.10566000000E+00 0.  1.
        994    1    1    2    0    0 -0.23094276963E+01  0.88343841546E+00  0.14658653712E+01  0.17122412996E+03  0.17120000000E+03 0.  0.
        998    1    1    2    0    0  0.11322563938E+02 -0.71089777752E+01  0.14546263969E+04  0.14547222046E+04  0.10000000000E+02 0.  1.
</event>
<event>
 5    1  0.1533416E-008  0.3829450E+03  0.7957747E-01  0.3438435E+00
         13   -1    0    0    0    0  0.00000000000E+00  0.00000000000E+00  0.14999999963E+04  0.15000000000E+04  0.10566000000E+00 0. -1.
        994   -1    0    0    0    0 -0.00000000000E+00 -0.00000000000E+00  0.11368683772E-12  0.17120000000E+03  0.17120000000E+03 0.  0.
         13    1    1    2    0    0  0.34788853053E+01 -0.15832540753E+02  0.48032555036E+02  0.50694274795E+02  0.10566000000E+00 0. -1.
        994    1    1    2    0    0 -0.10887897901E+01  0.13922272089E+02  0.32997625386E+01  0.17180030139E+03  0.17120000000E+03 0.  0.
        998    1    1    2    0    0 -0.23900955152E+01  0.19102686630E+01  0.14486676787E+04  0.14487054238E+04  0.10000000000E+02 0. -1.
</event>
<event>
 5    1  0.1533416E-008  0.2583370E+03  0.7957747E-01  0.4247169E+00
         13   -1    0    0    0    0  0.00000000000E+00  0.00000000000E+00  0.14999999963E+04  0.15000000000E+04  0.10566000000E+00 0.  1.
        994   -1    0    0    0    0 -0.00000000000E+00 -0.00000000000E+00  0.11368683772E-12  0.17120000000E+03  0.17120000000E+03 0.  0.
         13    1    1    2    0    0  0.86878575168E+02 -0.17451205060E+03  0.55784011224E+03  0.59092126770E+03  0.10566000000E+00 0.  1.
        994    1    1    2    0    0  0.96801510555E+01  0.65636610871E+02  0.70784271383E+02  0.19677836031E+03  0.17120000000E+03 0.  0.
        998    1    1    2    0    0 -0.96558726224E+02  0.10887543972E+03  0.87137561265E+03  0.88350037199E+03  0.10000000000E+02 0. -1.
</event>
<event>
 5    1  0.1533416E-008  0.3838045E+03  0.7957747E-01  0.3434758E+00
         13   -1    0    0    0    0  0.00000000000E+00  0.00000000000E+00  0.14999999963E+04  0.15000000000E+04  0.10566000000E+00 0. -1.
        994   -1    0    0    0    0 -0.00000000000E+00 -0.00000000000E+00  0.11368683772E-12  0.17120000000E+03  0.17120000000E+03 0.  0.
         13    1    1    2    0    0 -0.79253500572E+01 -0.65704675074E+01  0.23529824724E+02  0.25683575148E+02  0.10566000000E+00 0. -1.
        994    1    1    2    0    0  0.15722195937E+00  0.27735068730E+01  0.22503416864E+01  0.17123732390E+03  0.17120000000E+03 0.  0.
        998    1    1    2    0    0  0.77681280979E+01  0.37969606344E+01  0.14742198299E+04  0.14742791010E+04  0.10000000000E+02 0. -1.
</event>
<event>
 5    1  0.1533416E-008  0.3761686E+03  0.7957747E-01  0.3468013E+00
         13   -1    0    0    0    0  0.00000000000E+00  0.00000000000E+00  0.14999999963E+04  0.15000000000E+04  0.10566000000E+00 0. -1.
        994   -1    0    0    0    0 -0.00000000000E+00 -0.00000000000E+00  0.11368683772E-12  0.17120000000E+03  0.17120000000E+03 0.  0.
         13    1    1    2    0    0  0.73074902560E+02 -0.49258455139E+02  0.48399341925E+03  0.49195119456E+03  0.10566000000E+00 0. -1.
        994    1    1    2    0    0 -0.60099769074E+02  0.49205968950E+02  0.26788884961E+02  0.18989548173E+03  0.17120000000E+03 0.  0.
        998    1    1    2    0    0 -0.12975133486E+02  0.52486189363E-01  0.98921769207E+03  0.98935332371E+03  0.10000000000E+02 0. -1.
</event>
<event>
 5    1  0.1533416E-008  0.3858588E+03  0.7957747E-01  0.3426038E+00
         13   -1    0    0    0    0  0.00000000000E+00  0.00000000000E+00  0.14999999963E+04  0.15000000000E+04  0.10566000000E+00 0.  1.
        994   -1    0    0    0    0 -0.00000000000E+00 -0.00000000000E+00  0.11368683772E-12  0.17120000000E+03  0.17120000000E+03 0.  0.
         13    1    1    2    0    0 -0.16541763398E+01 -0.10283441554E+02  0.44501434215E+02  0.45704204192E+02  0.10566000000E+00 0.  1.
        994    1    1    2    0    0  0.21720130164E+01  0.10284302066E+02  0.15667765120E+01  0.17152952894E+03  0.17120000000E+03 0.  0.
        998    1    1    2    0    0 -0.51783667665E+00 -0.86051243098E-03  0.14539317856E+04  0.14539662669E+04  0.10000000000E+02 0.  1.
</event>
<event>
 5    1  0.1533416E-008  0.3546645E+03  0.7957747E-01  0.3569482E+00
         13   -1    0    0    0    0  0.00000000000E+00  0.00000000000E+00  0.14999999963E+04  0.15000000000E+04  0.10566000000E+00 0.  1.
        994   -1    0    0    0    0 -0.00000000000E+00 -0.00000000000E+00  0.11368683772E-12  0.17120000000E+03  0.17120000000E+03 0.  0.
         13    1    1    2    0    0 -0.31154218357E+02 -0.21129417517E+03  0.10790163950E+04  0.10999510014E+04  0.10566000000E+00 0.  1.
        994    1    1    2    0    0  0.29090351053E+02  0.18485818827E+03  0.14169564803E+03  0.29052692640E+03  0.17120000000E+03 0.  0.
        998    1    1    2    0    0  0.20638673039E+01  0.26435986899E+02  0.27928795330E+03  0.28072207218E+03  0.10000000000E+02 0. -1.
</event>
<event>
 5    1  0.1533416E-008  0.3847976E+03  0.7957747E-01  0.3430531E+00
         13   -1    0    0    0    0  0.00000000000E+00  0.00000000000E+00  0.14999999963E+04  0.15000000000E+04  0.10566000000E+00 0.  1.
        994   -1    0    0    0    0 -0.00000000000E+00 -0.00000000000E+00  0.11368683772E-12  0.17120000000E+03  0.17120000000E+03 0.  0.
         13    1    1    2    0    0  0.97037269725E+01  0.58700007183E+01  0.36659412219E+02  0.38373726609E+02  0.10566000000E+00 0.  1.
        994    1    1    2    0    0 -0.70609927196E+01 -0.60120670318E+01  0.20137395163E+01  0.17146281730E+03  0.17120000000E+03 0.  0.
        998    1    1    2    0    0 -0.26427342528E+01  0.14206631350E+00  0.14613268445E+04  0.14613634561E+04  0.10000000000E+02 0.  1.
</event>
<event>
 5    1  0.1533416E-008  0.3849477E+03  0.7957747E-01  0.3429894E+00
         13   -1    0    0    0    0  0.00000000000E+00  0.00000000000E+00  0.14999999963E+04  0.15000000000E+04  0.10566000000E+00 0.  1.
        994   -1    0    0    0    0 -0.00000000000E+00 -0.00000000000E+00  0.11368683772E-12  0.17120000000E+03  0.17120000000E+03 0.  0.
         13    1    1    2    0    0  0.63490184684E+01  0.22849585618E+02  0.63754881501E+01  0.24557516398E+02  0.10566000000E+00 0.  1.
        994    1    1    2    0    0 -0.57388344652E+01 -0.22430033116E+02  0.21052638233E+02  0.17403647372E+03  0.17120000000E+03 0.  0.
        998    1    1    2    0    0 -0.61018400322E+00 -0.41955250268E+00  0.14725718699E+04  0.14726060099E+04  0.10000000000E+02 0.  1.
</event>
<event>
 5    1  0.1533416E-008  0.3842830E+03  0.7957747E-01  0.3432719E+00
         13   -1    0    0    0    0  0.00000000000E+00  0.00000000000E+00  0.14999999963E+04  0.15000000000E+04  0.10566000000E+00 0. -1.
        994   -1    0    0    0    0 -0.00000000000E+00 -0.00000000000E+00  0.11368683772E-12  0.17120000000E+03  0.17120000000E+03 0.  0.
         13    1    1    2    0    0  0.78367783008E+01 -0.16696840875E+02  0.85103750204E+02  0.87079613298E+02  0.10566000000E+00 0. -1.
        994    1    1    2    0    0 -0.42355156843E+01  0.11470851736E+02  0.24795545169E+01  0.17165403643E+03  0.17120000000E+03 0.  0.
        998    1    1    2    0    0 -0.36012626165E+01  0.52259891388E+01  0.14124166916E+04  0.14124663503E+04  0.10000000000E+02 0.  0.
</event>
<event>
 5    1  0.1533416E-008  0.3837866E+03  0.7957747E-01  0.3434835E+00
         13   -1    0    0    0    0  0.00000000000E+00  0.00000000000E+00  0.14999999963E+04  0.15000000000E+04  0.10566000000E+00 0. -1.
        994   -1    0    0    0    0 -0.00000000000E+00 -0.00000000000E+00  0.11368683772E-12  0.17120000000E+03  0.17120000000E+03 0.  0.
         13    1    1    2    0    0 -0.95103784900E+01 -0.84477201741E+01  0.35686834817E+02  0.37886311755E+02  0.10566000000E+00 0. -1.
        994    1    1    2    0    0 -0.39269164322E+01  0.16694381626E+02  0.32054672811E+01  0.17208671672E+03  0.17120000000E+03 0.  0.
        998    1    1    2    0    0  0.13437294922E+02 -0.82466614519E+01  0.14611076942E+04  0.14612269715E+04  0.10000000000E+02 0. -1.
</event>
<event>
 5    1  0.1533416E-008  0.3737710E+03  0.7957747E-01  0.3478738E+00
         13   -1    0    0    0    0  0.00000000000E+00  0.00000000000E+00  0.14999999963E+04  0.15000000000E+04  0.10566000000E+00 0. -1.
        994   -1    0    0    0    0 -0.00000000000E+00 -0.00000000000E+00  0.11368683772E-12  0.17120000000E+03  0.17120000000E+03 0.  0.
         13    1    1    2    0    0 -0.17590948476E+03 -0.25403140630E+02  0.90978541072E+03  0.92698380304E+03  0.10566000000E+00 0. -1.
        994    1    1    2    0    0  0.16306085600E+03  0.49174391148E+02  0.11384784055E+03  0.26697890235E+03  0.17120000000E+03 0.  0.
        998    1    1    2    0    0  0.12848628762E+02 -0.23771250517E+02  0.47636674501E+03  0.47723729461E+03  0.10000000000E+02 0.  0.
</event>
<event>
 5    1  0.1533416E-008  0.3828465E+03  0.7957747E-01  0.3438857E+00
         13   -1    0    0    0    0  0.00000000000E+00  0.00000000000E+00  0.14999999963E+04  0.15000000000E+04  0.10566000000E+00 0. -1.
        994   -1    0    0    0    0 -0.00000000000E+00 -0.00000000000E+00  0.11368683772E-12  0.17120000000E+03  0.17120000000E+03 0.  0.
         13    1    1    2    0    0  0.16458745875E+02 -0.71530020802E+00  0.48826670073E+02  0.51531125008E+02  0.10566000000E+00 0. -1.
        994    1    1    2    0    0 -0.13582309948E+02 -0.45180415778E+01  0.33819433068E+01  0.17183064157E+03  0.17120000000E+03 0.  0.
        998    1    1    2    0    0 -0.28764359264E+01  0.52333417858E+01  0.14477913829E+04  0.14478382334E+04  0.10000000000E+02 0. -1.
</event>
<event>
 5    1  0.1533416E-008  0.3724376E+03  0.7957747E-01  0.3484763E+00
         13   -1    0    0    0    0  0.00000000000E+00  0.00000000000E+00  0.14999999963E+04  0.15000000000E+04  0.10566000000E+00 0. -1.
        994   -1    0    0    0    0 -0.00000000000E+00 -0.00000000000E+00  0.11368683772E-12  0.17120000000E+03  0.17120000000E+03 0.  0.
         13    1    1    2    0    0  0.16613367175E+02  0.19915926055E+02  0.38587414895E+02  0.46493524623E+02  0.10566000000E+00 0. -1.
        994    1    1    2    0    0 -0.57474983878E+01 -0.21090311766E+02  0.96406334071E+01  0.17285895059E+03  0.17120000000E+03 0.  0.
        998    1    1    2    0    0 -0.10865868788E+02  0.11743857103E+01  0.14517719480E+04  0.14518475248E+04  0.10000000000E+02 0. -1.
</event>
<event>
 5    1  0.1533416E-008  0.3859671E+03  0.7957747E-01  0.3425581E+00
         13   -1    0    0    0    0  0.00000000000E+00  0.00000000000E+00  0.14999999963E+04  0.15000000000E+04  0.10566000000E+00 0. -1.
        994   -1    0    0    0    0 -0.00000000000E+00 -0.00000000000E+00  0.11368683772E-12  0.17120000000E+03  0.17120000000E+03 0.  0.
         13    1    1    2    0    0 -0.22910972434E+01  0.10638694747E+02  0.50311313479E+02  0.51474949058E+02  0.10566000000E+00 0. -1.
        994    1    1    2    0    0  0.67986191954E+01 -0.11299780180E+02  0.17211074369E+01  0.17171577815E+03  0.17120000000E+03 0.  0.
        998    1    1    2    0    0 -0.45075219519E+01  0.66108543358E+00  0.14479675754E+04  0.14480092728E+04  0.10000000000E+02 0. -1.
</event>
<event>
 5    1  0.1533416E-008  0.3800556E+03  0.7957747E-01  0.3450916E+00
         13   -1    0    0    0    0  0.00000000000E+00  0.00000000000E+00  0.14999999963E+04  0.15000000000E+04  0.10566000000E+00 0.  1.
        994   -1    0    0    0    0 -0.00000000000E+00 -0.00000000000E+00  0.11368683772E-12  0.17120000000E+03  0.17120000000E+03 0.  0.
         13    1    1    2    0    0  0.19735048189E+02  0.27571358988E+02  0.12608447542E+03  0.13056399990E+03  0.10566000000E+00 0.  1.
        994    1    1    2    0    0 -0.23400163142E+02 -0.28423049282E+02  0.86486702515E+01  0.17532734203E+03  0.17120000000E+03 0.  0.
        998    1    1    2    0    0  0.36651149528E+01  0.85169029444E+00  0.13652668506E+04  0.13653086581E+04  0.10000000000E+02 0.  1.
</event>
<event>
 5    1  0.3237216E-008  0.3864174E+03  0.7957747E-01  0.3423683E+00
         13   -1    0    0    0    0  0.00000000000E+00  0.00000000000E+00  0.14999999963E+04  0.15000000000E+04  0.10566000000E+00 0. -1.
        994   -1    0    0    0    0 -0.00000000000E+00 -0.00000000000E+00  0.11368683772E-12  0.17120000000E+03  0.17120000000E+03 0.  0.
         13    1    1    2    0    0 -0.91923471857E+00  0.10338666061E+02  0.60193223186E+02  0.61081652646E+02  0.10566000000E+00 0. -1.
        994    1    1    2    0    0 -0.23095742481E+01 -0.51401192064E+01  0.10320173556E+01  0.17129582604E+03  0.17120000000E+03 0.  0.
        998    1    1    2    0    0  0.32288089667E+01 -0.51985468548E+01  0.14387747557E+04  0.14388225213E+04  0.10000000000E+02 0. -1.
</event>
<event>
 5    1  0.1533416E-008  0.3797018E+03  0.7957747E-01  0.3452458E+00
         13   -1    0    0    0    0  0.00000000000E+00  0.00000000000E+00  0.14999999963E+04  0.15000000000E+04  0.10566000000E+00 0. -1.
        994   -1    0    0    0    0 -0.00000000000E+00 -0.00000000000E+00  0.11368683772E-12  0.17120000000E+03  0.17120000000E+03 0.  0.
         13    1    1    2    0    0 -0.33556539856E+02  0.35850428538E+01  0.13614191300E+03  0.14026234541E+03  0.10566000000E+00 0. -1.
        994    1    1    2    0    0  0.14833633576E+02  0.52945652026E+01  0.51142502219E+01  0.17199902517E+03  0.17120000000E+03 0.  0.
        998    1    1    2    0    0  0.18722906280E+02 -0.88796080564E+01  0.13587438331E+04  0.13589386294E+04  0.10000000000E+02 0. -1.
</event>
<event>
 5    1  0.1533416E-008  0.4003377E+03  0.7957747E-01  0.3367119E+00
         13   -1    0    0    0    0  0.00000000000E+00  0.00000000000E+00  0.14999999963E+04  0.15000000000E+04  0.10566000000E+00 0.  1.
        994   -1    0    0    0    0 -0.00000000000E+00 -0.00000000000E+00  0.11368683772E-12  0.17120000000E+03  0.17120000000E+03 0.  0.
         13    1    1    2    0    0  0.21211923671E+02  0.65530110278E+02  0.73488602896E+02  0.10072103543E+03  0.10566000000E+00 0.  1.
        994    1    1    2    0    0 -0.12342850459E+02 -0.61395811384E+02  0.43520571796E+02  0.18741737321E+03  0.17120000000E+03 0.  0.
        998    1    1    2    0    0 -0.88690732121E+01 -0.41342988933E+01  0.13829908216E+04  0.13830615914E+04  0.10000000000E+02 0.  1.
</event>
<event>
 5    1  0.1533416E-008  0.3848787E+03  0.7957747E-01  0.3430187E+00
         13   -1    0    0    0    0  0.00000000000E+00  0.00000000000E+00  0.14999999963E+04  0.15000000000E+04  0.10566000000E+00 0. -1.
        994   -1    0    0    0    0 -0.00000000000E+00 -0.00000000000E+00  0.11368683772E-12  0.17120000000E+03  0.17120000000E+03 0.  0.
         13    1    1    2    0    0 -0.11075125357E+02  0.73046671087E+01  0.53663352971E+02  0.55279138736E+02  0.10566000000E+00 0. -1.
        994    1    1    2    0    0  0.35449023317E+01 -0.43942725817E+00  0.17323543056E+01  0.17124602325E+03  0.17120000000E+03 0.  0.
        998    1    1    2    0    0  0.75302230252E+01 -0.68652398506E+01  0.14446042890E+04  0.14446748380E+04  0.10000000000E+02 0. -1.
</event>
<event>
 5    1  0.1533416E-008  0.3846670E+03  0.7957747E-01  0.3431086E+00
         13   -1    0    0    0    0  0.00000000000E+00  0.00000000000E+00  0.14999999963E+04  0.15000000000E+04  0.10566000000E+00 0.  1.
        994   -1    0    0    0    0 -0.00000000000E+00 -0.00000000000E+00  0.11368683772E-12  0.17120000000E+03  0.17120000000E+03 0.  0.
         13    1    1    2    0    0  0.82839460429E+01  0.16393909204E+02  0.10481512336E+03  0.10641243006E+03  0.10566000000E+00 0.  1.
        994    1    1    2    0    0 -0.31989850130E+01  0.42738414960E+01  0.18893775620E+01  0.17129363378E+03  0.17120000000E+03 0.  0.
        998    1    1    2    0    0 -0.50849610299E+01 -0.20667750700E+02  0.13932954954E+04  0.13934939362E+04  0.10000000000E+02 0.  1.
</event>
<event>
 5    1  0.1533416E-008  0.3739991E+03  0.7957747E-01  0.3477711E+00
         13   -1    0    0    0    0  0.00000000000E+00  0.00000000000E+00  0.14999999963E+04  0.15000000000E+04  0.10566000000E+00 0. -1.
        994   -1    0    0    0    0 -0.00000000000E+00 -0.00000000000E+00  0.11368683772E-12  0.17120000000E+03  0.17120000000E+03 0.  0.
         13    1    1    2    0    0  0.12370477229E+02 -0.15465915656E+01  0.74469617844E+01  0.14522019701E+02  0.10566000000E+00 0. -1.
        994    1    1    2    0    0 -0.13804826489E+02  0.10077401200E+01  0.78473277033E+01  0.17193780657E+03  0.17120000000E+03 0.  0.
        998    1    1    2    0    0  0.14343492600E+01  0.53885144557E+00  0.14847057068E+04  0.14847401737E+04  0.10000000000E+02 0. -1.
</event>
<event>
 5    1  0.1533416E-008  0.3831861E+03  0.7957747E-01  0.3437402E+00
         13   -1    0    0    0    0  0.00000000000E+00  0.00000000000E+00  0.14999999963E+04  0.15000000000E+04  0.10566000000E+00 0.  1.
        994   -1    0    0    0    0 -0.00000000000E+00 -0.00000000000E+00  0.11368683772E-12  0.17120000000E+03  0.17120000000E+03 0.  0.
         13    1    1    2    0    0  0.15697757456E+02  0.32128156368E+01  0.52613625539E+02  0.54999513906E+02  0.10566000000E+00 0.  1.
        994    1    1    2    0    0 -0.53273045658E+00  0.49144051171E+01  0.26142341128E+01  0.17129129984E+03  0.17120000000E+03 0.  0.
        998    1    1    2    0    0 -0.15165027000E+02 -0.81272207539E+01  0.14447721366E+04  0.14449091863E+04  0.10000000000E+02 0.  1.
</event>
<event>
 5    1  0.1533416E-008  0.3861802E+03  0.7957747E-01  0.3424682E+00
         13   -1    0    0    0    0  0.00000000000E+00  0.00000000000E+00  0.14999999963E+04  0.15000000000E+04  0.10566000000E+00 0.  1.
        994   -1    0    0    0    0 -0.00000000000E+00 -0.00000000000E+00  0.11368683772E-12  0.17120000000E+03  0.17120000000E+03 0.  0.
         13    1    1    2    0    0 -0.10175663956E+02 -0.69018846496E+01  0.72496519659E+02  0.73531875234E+02  0.10566000000E+00 0.  1.
        994    1    1    2    0    0  0.11990395089E+02 -0.43335020982E+00  0.15170613482E+01  0.17162662626E+03  0.17120000000E+03 0.  0.
        998    1    1    2    0    0 -0.18147311333E+01  0.73352348594E+01  0.14259864153E+04  0.14260414985E+04  0.10000000000E+02 0.  1.
</event>
<event>
 5    1  0.1533416E-008  0.3782408E+03  0.7957747E-01  0.3458855E+00
         13   -1    0    0    0    0  0.00000000000E+00  0.00000000000E+00  0.14999999963E+04  0.15000000000E+04  0.10566000000E+00 0. -1.
        994   -1    0    0    0    0 -0.00000000000E+00 -0.00000000000E+00  0.11368683772E-12  0.17120000000E+03  0.17120000000E+03 0.  0.
         13    1    1    2    0    0 -0.83430800239E+01 -0.30286464881E+02  0.11449971110E+03  0.11873109090E+03  0.10566000000E+00 0. -1.
        994    1    1    2    0    0  0.38039190884E+01 -0.15647012112E+02  0.58962077231E+01  0.17205668849E+03  0.17120000000E+03 0.  0.
        998    1    1    2    0    0  0.45391609356E+01  0.45933476993E+02  0.13796040775E+04  0.13804122206E+04  0.10000000000E+02 0. -1.
</event>
<event>
 5    1  0.1533416E-008  0.3823926E+03  0.7957747E-01  0.3440806E+00
         13   -1    0    0    0    0  0.00000000000E+00  0.00000000000E+00  0.14999999963E+04  0.15000000000E+04  0.10566000000E+00 0. -1.
        994   -1    0    0    0    0 -0.00000000000E+00 -0.00000000000E+00  0.11368683772E-12  0.17120000000E+03  0.17120000000E+03 0.  0.
         13    1    1    2    0    0 -0.36919973121E+02  0.20563792294E+02  0.24642674798E+03  0.25002421334E+03  0.10566000000E+00 0. -1.
        994    1    1    2    0    0  0.39851523754E+02 -0.24145674649E+02  0.10164952477E+02  0.17771866477E+03  0.17120000000E+03 0.  0.
        998    1    1    2    0    0 -0.29315506327E+01  0.35818823553E+01  0.12434082958E+04  0.12434571219E+04  0.10000000000E+02 0. -1.
</event>
<event>
 5    1  0.1533416E-008  0.3726441E+03  0.7957747E-01  0.3483826E+00
         13   -1    0    0    0    0  0.00000000000E+00  0.00000000000E+00  0.14999999963E+04  0.15000000000E+04  0.10566000000E+00 0.  1.
        994   -1    0    0    0    0 -0.00000000000E+00 -0.00000000000E+00  0.11368683772E-12  0.17120000000E+03  0.17120000000E+03 0.  0.
         13    1    1    2    0    0  0.27764936620E+01 -0.24807012623E+02  0.37282319790E+02  0.44867352555E+02  0.10566000000E+00 0.  1.
        994    1    1    2    0    0  0.35714772017E+00  0.71674441636E+01  0.80699925642E+01  0.17154027105E+03  0.17120000000E+03 0.  0.
        998    1    1    2    0    0 -0.31336413821E+01  0.17639568460E+02  0.14546476839E+04  0.14547923764E+04  0.10000000000E+02 0.  1.
</event>
<event>
 5    1  0.1661528E-008  0.3855921E+03  0.7957747E-01  0.3427165E+00
         13   -1    0    0    0    0  0.00000000000E+00  0.00000000000E+00  0.14999999963E+04  0.15000000000E+04  0.10566000000E+00 0.  1.
        994   -1    0    0    0    0 -0.00000000000E+00 -0.00000000000E+00  0.11368683772E-12  0.17120000000E+03  0.17120000000E+03 0.  0.
         13    1    1    2    0    0  0.27762192399E+01 -0.13904029881E+02  0.79904711156E+02  0.81152963404E+02  0.10566000000E+00 0.  1.
        994    1    1    2    0    0 -0.10817002986E+01  0.21515214361E+01  0.13554792410E+01  0.17122230125E+03  0.17120000000E+03 0.  0.
        998    1    1    2    0    0 -0.16945189413E+01  0.11752508445E+02  0.14187398059E+04  0.14188247354E+04  0.10000000000E+02 0.  1.
</event>
<event>
 5    1  0.1533416E-008  0.3848433E+03  0.7957747E-01  0.3430337E+00
         13   -1    0    0    0    0  0.00000000000E+00  0.00000000000E+00  0.14999999963E+04  0.15000000000E+04  0.10566000000E+00 0.  1.
        994   -1    0    0    0    0 -0.00000000000E+00 -0.00000000000E+00  0.11368683772E-12  0.17120000000E+03  0.17120000000E+03 0.  0.
         13    1    1    2    0    0 -0.15849398467E+02 -0.75514088042E+01  0.98313820826E+02  0.99869143063E+02  0.10566000000E+00 0.  1.
        994    1    1    2    0    0 -0.14414964412E+01  0.33898728559E+01  0.17525872119E+01  0.17124859331E+03  0.17120000000E+03 0.  0.
        998    1    1    2    0    0  0.17290894908E+02  0.41615359483E+01  0.13999335882E+04  0.14000822636E+04  0.10000000000E+02 0.  1.
</event>
<event>
 5    1  0.1533416E-008  0.3815065E+03  0.7957747E-01  0.3444625E+00
         13   -1    0    0    0    0  0.00000000000E+00  0.00000000000E+00  0.14999999963E+04  0.15000000000E+04  0.10566000000E+00 0. -1.
        994   -1    0    0    0    0 -0.00000000000E+00 -0.00000000000E+00  0.11368683772E-12  0.17120000000E+03  0.17120000000E+03 0.  0.
         13    1    1    2    0    0 -0.31394693604E+02  0.18380541682E+02  0.21617133718E+03  0.21921115227E+03  0.10566000000E+00 0. -1.
        994    1    1    2    0    0  0.92702820552E+01 -0.21995880375E+01  0.36765983612E+01  0.17150432558E+03  0.17120000000E+03 0.  0.
        998    1    1    2    0    0  0.22124411549E+02 -0.16180953644E+02  0.12801520607E+04  0.12804845221E+04  0.10000000000E+02 0. -1.
</event>
<event>
 5    1  0.1533416E-008  0.3813700E+03  0.7957747E-01  0.3445215E+00
         13   -1    0    0    0    0  0.00000000000E+00  0.00000000000E+00  0.14999999963E+04  0.15000000000E+04  0.10566000000E+00 0. -1.
        994   -1    0    0    0    0 -0.00000000000E+00 -0.00000000000E+00  0.11368683772E-12  0.17120000000E+03  0.17120000000E+03 0.  0.
         13    1    1    2    0    0  0.16227168625E+02 -0.17181142156E+02  0.88390337048E+02  0.91495221159E+02  0.10566000000E+00 0. -1.
        994    1    1    2    0    0 -0.10369352845E+01 -0.66528291881E+01  0.35940633009E+01  0.17137004599E+03  0.17120000000E+03 0.  0.
        998    1    1    2    0    0 -0.15190233341E+02  0.23833971344E+02  0.14080155959E+04  0.14083347329E+04  0.10000000000E+02 0. -1.
</event>
<event>
 5    1  0.1533416E-008  0.3821292E+03  0.7957747E-01  0.3441940E+00
         13   -1    0    0    0    0  0.00000000000E+00  0.00000000000E+00  0.14999999963E+04  0.15000000000E+04  0.10566000000E+00 0. -1.
        994   -1    0    0    0    0 -0.00000000000E+00 -0.00000000000E+00  0.11368683772E-12  0.17120000000E+03  0.17120000000E+03 0.  0.
         13    1    1    2    0    0  0.65069611463E+01  0.14478623115E+02  0.38888521095E+02  0.42003563035E+02  0.10566000000E+00 0. -1.
        994    1    1    2    0    0 -0.49876381946E+01 -0.18086801278E+02  0.42315904709E+01  0.17227697256E+03  0.17120000000E+03 0.  0.
        998    1    1    2    0    0 -0.15193229517E+01  0.36081781631E+01  0.14568798847E+04  0.14569194644E+04  0.10000000000E+02 0. -1.
</event>
<event>
 5    1  0.1533416E-008  0.3786234E+03  0.7957747E-01  0.3457175E+00
         13   -1    0    0    0    0  0.00000000000E+00  0.00000000000E+00  0.14999999963E+04  0.15000000000E+04  0.10566000000E+00 0. -1.
        994   -1    0    0    0    0 -0.00000000000E+00 -0.00000000000E+00  0.11368683772E-12  0.17120000000E+03  0.17120000000E+03 0.  0.
         13    1    1    2    0    0 -0.12959592066E+02 -0.11243533214E+02  0.29063697964E+02  0.33750226207E+02  0.10566000000E+00 0. -1.
        994    1    1    2    0    0  0.67317443169E+01 -0.24385786063E-01  0.49818773206E+01  0.17140471428E+03  0.17120000000E+03 0.  0.
        998    1    1    2    0    0  0.62278477495E+01  0.11267919000E+02  0.14659544210E+04  0.14660450595E+04  0.10000000000E+02 0. -1.
</event>
<event>
 5    1  0.1533416E-008  0.3782028E+03  0.7957747E-01  0.3459022E+00
         13   -1    0    0    0    0  0.00000000000E+00  0.00000000000E+00  0.14999999963E+04  0.15000000000E+04  0.10566000000E+00 0.  1.
        994   -1    0    0    0    0 -0.00000000000E+00 -0.00000000000E+00  0.11368683772E-12  0.17120000000E+03  0.17120000000E+03 0.  0.
         13    1    1    2    0    0  0.54806865986E+01 -0.30862402898E+02  0.10132409642E+03  0.10606181932E+03  0.10566000000E+00 0.  1.
        994    1    1    2    0    0 -0.14121330740E+01  0.68806382960E+01  0.52090782140E+01  0.17142319504E+03  0.17120000000E+03 0.  0.
        998    1    1    2    0    0 -0.40685535246E+01  0.23981764602E+02  0.13934668216E+04  0.13937149856E+04  0.10000000000E+02 0.  1.
</event>
<event>
 5    1  0.1533416E-008  0.3801642E+03  0.7957747E-01  0.3450444E+00
         13   -1    0    0    0    0  0.00000000000E+00  0.00000000000E+00  0.14999999963E+04  0.15000000000E+04  0.10566000000E+00 0. -1.
        994   -1    0    0    0    0 -0.00000000000E+00 -0.00000000000E+00  0.11368683772E-12  0.17120000000E+03  0.17120000000E+03 0.  0.
         13    1    1    2    0    0  0.19513739928E+02  0.17034951783E+01  0.47667640940E+02  0.51535454773E+02  0.10566000000E+00 0. -1.
        994    1    1    2    0    0 -0.21995436197E+01 -0.23859798390E+01  0.40854718293E+01  0.17127948497E+03  0.17120000000E+03 0.  0.
        998    1    1    2    0    0 -0.17314196308E+02  0.68248466064E+00  0.14482468835E+04  0.14483850603E+04  0.10000000000E+02 0. -1.
</event>
<event>
 5    1  0.1533416E-008  0.3855200E+03  0.7957747E-01  0.3427470E+00
         13   -1    0    0    0    0  0.00000000000E+00  0.00000000000E+00  0.14999999963E+04  0.15000000000E+04  0.10566000000E+00 0.  1.
        994   -1    0    0    0    0 -0.00000000000E+00 -0.00000000000E+00  0.11368683772E-12  0.17120000000E+03  0.17120000000E+03 0.  0.
         13    1    1    2    0    0  0.10240425608E+02  0.63707004227E+01  0.54898874791E+02  0.56208093348E+02  0.10566000000E+00 0.  1.
        994    1    1    2    0    0 -0.52544517423E+01  0.21351477634E+01  0.14778147227E+01  0.17130029788E+03  0.17120000000E+03 0.  0.
        998    1    1    2    0    0 -0.49859738653E+01 -0.85058481861E+01  0.14436233068E+04  0.14436916088E+04  0.10000000000E+02 0.  1.
</event>
<event>
 5    1  0.1533416E-008  0.3850675E+03  0.7957747E-01  0.3429386E+00
         13   -1    0    0    0    0  0.00000000000E+00  0.00000000000E+00  0.14999999963E+04  0.15000000000E+04  0.10566000000E+00 0. -1.
        994   -1    0    0    0    0 -0.00000000000E+00 -0.00000000000E+00  0.11368683772E-12  0.17120000000E+03  0.17120000000E+03 0.  0.
         13    1    1    2    0    0 -0.10898037545E+02  0.12470322900E+01  0.37825552199E+02  0.39384081493E+02  0.10566000000E+00 0. -1.
        994    1    1    2    0    0  0.59700380468E+01 -0.48035497546E+00  0.17145912631E+01  0.17131331506E+03  0.17120000000E+03 0.  0.
        998    1    1    2    0    0  0.49279994980E+01 -0.76667731455E+00  0.14604598528E+04  0.14605026034E+04  0.10000000000E+02 0. -1.
</event>
<event>
 5    1  0.1533416E-008  0.3850332E+03  0.7957747E-01  0.3429531E+00
         13   -1    0    0    0    0  0.00000000000E+00  0.00000000000E+00  0.14999999963E+04  0.15000000000E+04  0.10566000000E+00 0.  1.
        994   -1    0    0    0    0 -0.00000000000E+00 -0.00000000000E+00  0.11368683772E-12  0.17120000000E+03  0.17120000000E+03 0.  0.
         13    1    1    2    0    0 -0.64138554526E+01  0.10980687215E+02  0.49841275987E+02  0.51438088898E+02  0.10566000000E+00 0.  1.
        994    1    1    2    0    0  0.30205182771E+01 -0.90341453762E+01  0.19120825021E+01  0.17147546580E+03  0.17120000000E+03 0.  0.
        998    1    1    2    0    0  0.33933371756E+01 -0.19465418392E+01  0.14482466378E+04  0.14482864453E+04  0.10000000000E+02 0.  1.
</event>
<event>
 5    1  0.1533416E-008  0.3772170E+03  0.7957747E-01  0.3463367E+00
         13   -1    0    0    0    0  0.00000000000E+00  0.00000000000E+00  0.14999999963E+04  0.15000000000E+04  0.10566000000E+00 0. -1.
        994   -1    0    0    0    0 -0.00000000000E+00 -0.00000000000E+00  0.11368683772E-12  0.17120000000E+03  0.17120000000E+03 0.  0.
         13    1    1    2    0    0 -0.39160272453E+02  0.10954275981E+01  0.14751491531E+03  0.15262826836E+03  0.10566000000E+00 0. -1.
        994    1    1    2    0    0  0.90119164794E+01 -0.95996757340E+01  0.61298018899E+01  0.17181496700E+03  0.17120000000E+03 0.  0.
        998    1    1    2    0    0  0.30148355974E+02  0.85042481359E+01  0.13463552791E+04  0.13467567646E+04  0.10000000000E+02 0. -1.
</event>
<event>
 5    1  0.1936356E-008  0.3860326E+03  0.7957747E-01  0.3425305E+00
         13   -1    0    0    0    0  0.00000000000E+00  0.00000000000E+00  0.14999999963E+04  0.15000000000E+04  0.10566000000E+00 0. -1.
        994   -1    0    0    0    0 -0.00000000000E+00 -0.00000000000E+00  0.11368683772E-12  0.17120000000E+03  0.17120000000E+03 0.  0.
         13    1    1    2    0    0 -0.10080678604E+02 -0.24762432051E+01  0.49533174660E+02  0.50609272051E+02  0.10566000000E+00 0. -1.
        994    1    1    2    0    0  0.32175174443E+01  0.65574033524E+01  0.12932200150E+01  0.17136062668E+03  0.17120000000E+03 0.  0.
        998    1    1    2    0    0  0.68631611596E+01 -0.40811601473E+01  0.14491736016E+04  0.14492301013E+04  0.10000000000E+02 0. -1.
</event>
<event>
 5    1  0.1533416E-008  0.3774393E+03  0.7957747E-01  0.3462385E+00
         13   -1    0    0    0    0  0.00000000000E+00  0.00000000000E+00  0.14999999963E+04  0.15000000000E+04  0.10566000000E+00 0.  1.
        994   -1    0    0    0    0 -0.00000000000E+00 -0.00000000000E+00  0.11368683772E-12  0.17120000000E+03  0.17120000000E+03 0.  0.
         13    1    1    2    0    0 -0.31012238136E+01  0.32341372477E+02  0.10686928780E+03  0.11169887109E+03  0.10566000000E+00 0.  1.
        994    1    1    2    0    0  0.26592129324E+02  0.62995645474E+01  0.79533808522E+01  0.17354976843E+03  0.17120000000E+03 0.  0.
        998    1    1    2    0    0 -0.23490905510E+02 -0.38640937024E+02  0.13851773276E+04  0.13859513605E+04  0.10000000000E+02 0.  1.
</event>
<event>
 5    1  0.1533416E-008  0.3839146E+03  0.7957747E-01  0.3434288E+00
         13   -1    0    0    0    0  0.00000000000E+00  0.00000000000E+00  0.14999999963E+04  0.15000000000E+04  0.10566000000E+00 0.  1.
        994   -1    0    0    0    0 -0.00000000000E+00 -0.00000000000E+00  0.11368683772E-12  0.17120000000E+03  0.17120000000E+03 0.  0.
         13    1    1    2    0    0  0.63294537966E+01  0.92117887334E+01  0.29957259562E+02  0.31974483600E+02  0.10566000000E+00 0.  1.
        994    1    1    2    0    0  0.30019450514E+01  0.78460663427E+01  0.24029024516E+01  0.17142282920E+03  0.17120000000E+03 0.  0.
        998    1    1    2    0    0 -0.93313988480E+01 -0.17057855076E+02  0.14676398343E+04  0.14678026872E+04  0.10000000000E+02 0.  1.
</event>
<event>
 5    1  0.1533416E-008  0.3694816E+03  0.7957747E-01  0.3498277E+00
         13   -1    0    0    0    0  0.00000000000E+00  0.00000000000E+00  0.14999999963E+04  0.15000000000E+04  0.10566000000E+00 0. -1.
        994   -1    0    0    0    0 -0.00000000000E+00 -0.00000000000E+00  0.11368683772E-12  0.17120000000E+03  0.17120000000E+03 0.  0.
         13    1    1    2    0    0  0.89131159352E+02 -0.10395228041E+02  0.31571304852E+03  0.32821816602E+03  0.10566000000E+00 0. -1.
        994    1    1    2    0    0 -0.82048007214E+02 -0.16000756372E+02  0.35465068409E+02  0.19379141046E+03  0.17120000000E+03 0.  0.
        998    1    1    2    0    0 -0.70831521386E+01  0.26395984413E+02  0.11488218793E+04  0.11491904235E+04  0.10000000000E+02 0. -1.
</event>
<event>
 5    1  0.1533416E-008  0.3785563E+03  0.7957747E-01  0.3457469E+00
         13   -1    0    0    0    0  0.00000000000E+00  0.00000000000E+00  0.14999999963E+04  0.15000000000E+04  0.10566000000E+00 0. -1.
        994   -1    0    0    0    0 -0.00000000000E+00 -0.00000000000E+00  0.11368683772E-12  0.17120000000E+03  0.17120000000E+03 0.  0.
         13    1    1    2    0    0 -0.62893660539E+02  0.56759539852E+01  0.31978738496E+03  0.32596289932E+03  0.10566000000E+00 0. -1.
        994    1    1    2    0    0  0.64288846653E+02 -0.70502319081E+00  0.18875876345E+02  0.18384583642E+03  0.17120000000E+03 0.  0.
        998    1    1    2    0    0 -0.13951861137E+01 -0.49709307944E+01  0.11613367350E+04  0.11613912643E+04  0.10000000000E+02 0.  0.
</event>
<event>
 5    1  0.1533416E-008  0.3836380E+03  0.7957747E-01  0.3435469E+00
         13   -1    0    0    0    0  0.00000000000E+00  0.00000000000E+00  0.14999999963E+04  0.15000000000E+04  0.10566000000E+00 0.  1.
        994   -1    0    0    0    0 -0.00000000000E+00 -0.00000000000E+00  0.11368683772E-12  0.17120000000E+03  0.17120000000E+03 0.  0.
         13    1    1    2    0    0 -0.18764621608E+01 -0.12677922220E+02  0.33988135647E+02  0.36324307988E+02  0.10566000000E+00 0.  1.
        994    1    1    2    0    0 -0.95086111122E+01  0.17032694312E+02  0.35658139685E+01  0.17234465872E+03  0.17120000000E+03 0.  0.
        998    1    1    2    0    0  0.11385073273E+02 -0.43547720929E+01  0.14624460467E+04  0.14625310333E+04  0.10000000000E+02 0.  1.
</event>
<event>
 5    1  0.1533416E-008  0.3823775E+03  0.7957747E-01  0.3440871E+00
         13   -1    0    0    0    0  0.00000000000E+00  0.00000000000E+00  0.14999999963E+04  0.15000000000E+04  0.10566000000E+00 0.  1.
        994   -1    0    0    0    0 -0.00000000000E+00 -0.00000000000E+00  0.11368683772E-12  0.17120000000E+03  0.17120000000E+03 0.  0.
         13    1    1    2    0    0  0.19577502644E+02 -0.96720387864E+01  0.85017224564E+02  0.87776799786E+02  0.10566000000E+00 0.  1.
        994    1    1    2    0    0 -0.36639314616E+01  0.89884523446E-01  0.29823563271E+01  0.17126519472E+03  0.17120000000E+03 0.  0.
        998    1    1    2    0    0 -0.15913571183E+02  0.95821542629E+01  0.14120004154E+04  0.14121580055E+04  0.10000000000E+02 0.  1.
</event>
<event>
 5    1  0.1533416E-008  0.3855163E+03  0.7957747E-01  0.3427485E+00
         13   -1    0    0    0    0  0.00000000000E+00  0.00000000000E+00  0.14999999963E+04  0.15000000000E+04  0.10566000000E+00 0.  1.
        994   -1    0    0    0    0 -0.00000000000E+00 -0.00000000000E+00  0.11368683772E-12  0.17120000000E+03  0.17120000000E+03 0.  0.
         13    1    1    2    0    0 -0.78929727686E+01  0.69745969925E+01  0.43994719708E+02  0.45238153682E+02  0.10566000000E+00 0.  1.
        994    1    1    2    0    0 -0.58112192001E+01  0.43043933419E+01  0.15457383554E+01  0.17135964338E+03  0.17120000000E+03 0.  0.
        998    1    1    2    0    0  0.13704191969E+02 -0.11278990334E+02  0.14544595382E+04  0.14546022029E+04  0.10000000000E+02 0.  1.
</event>
<event>
 5    1  0.1533416E-008  0.3757557E+03  0.7957747E-01  0.3469850E+00
         13   -1    0    0    0    0  0.00000000000E+00  0.00000000000E+00  0.14999999963E+04  0.15000000000E+04  0.10566000000E+00 0. -1.
        994   -1    0    0    0    0 -0.00000000000E+00 -0.00000000000E+00  0.11368683772E-12  0.17120000000E+03  0.17120000000E+03 0.  0.
         13    1    1    2    0    0  0.89197812956E+02 -0.16391408653E+02  0.29272820751E+03  0.30645512355E+03  0.10566000000E+00 0. -1.
        994    1    1    2    0    0 -0.52272112058E+02  0.76868454350E+00  0.23831482733E+02  0.18058334404E+03  0.17120000000E+03 0.  0.
        998    1    1    2    0    0 -0.36925700898E+02  0.15622724109E+02  0.11834403060E+04  0.11841615324E+04  0.10000000000E+02 0. -1.
</event>
<event>
 5    1  0.1533416E-008  0.3827730E+03  0.7957747E-01  0.3439172E+00
         13   -1    0    0    0    0  0.00000000000E+00  0.00000000000E+00  0.14999999963E+04  0.15000000000E+04  0.10566000000E+00 0.  1.
        994   -1    0    0    0    0 -0.00000000000E+00 -0.00000000000E+00  0.11368683772E-12  0.17120000000E+03  0.17120000000E+03 0.  0.
         13    1    1    2    0    0 -0.47855816032E+01 -0.11821122890E+02  0.27642849312E+02  0.30443045508E+02  0.10566000000E+00 0.  1.
        994    1    1    2    0    0  0.75555026961E+00  0.21071613951E+02  0.42139329931E+01  0.17254501152E+03  0.17120000000E+03 0.  0.
        998    1    1    2    0    0  0.40300313336E+01 -0.92504910613E+01  0.14681432140E+04  0.14682119430E+04  0.10000000000E+02 0.  1.
</event>
<event>
 5    1  0.1533416E-008  0.3831045E+03  0.7957747E-01  0.3437751E+00
         13   -1    0    0    0    0  0.00000000000E+00  0.00000000000E+00  0.14999999963E+04  0.15000000000E+04  0.10566000000E+00 0.  1.
        994   -1    0    0    0    0 -0.00000000000E+00 -0.00000000000E+00  0.11368683772E-12  0.17120000000E+03  0.17120000000E+03 0.  0.
         13    1    1    2    0    0 -0.14361028088E+02  0.10105113038E+02  0.61566130809E+02  0.64021496891E+02  0.10566000000E+00 0.  1.
        994    1    1    2    0    0  0.13433315479E+01 -0.41889087391E+01  0.26382114940E+01  0.17127682755E+03  0.17120000000E+03 0.  0.
        998    1    1    2    0    0  0.13017696540E+02 -0.59162042984E+01  0.14357956540E+04  0.14359016756E+04  0.10000000000E+02 0.  1.
</event>
<event>
 5    1  0.1533416E-008  0.3841587E+03  0.7957747E-01  0.3433248E+00
         13   -1    0    0    0    0  0.00000000000E+00  0.00000000000E+00  0.14999999963E+04  0.15000000000E+04  0.10566000000E+00 0. -1.
        994   -1    0    0    0    0 -0.00000000000E+00 -0.00000000000E+00  0.11368683772E-12  0.17120000000E+03  0.17120000000E+03 0.  0.
         13    1    1    2    0    0 -0.15939319961E+02 -0.14188038081E+02  0.10823658437E+03  0.11032013282E+03  0.10566000000E+00 0. -1.
        994    1    1    2    0    0  0.10135848688E+02  0.13431733703E+02  0.29826947050E+01  0.17205081623E+03  0.17120000000E+03 0.  0.
        998    1    1    2    0    0  0.58034712729E+01  0.75630437711E+00  0.13887807172E+04  0.13888290509E+04  0.10000000000E+02 0. -1.
</event>
<event>
 5    1  0.1533416E-008  0.3764488E+03  0.7957747E-01  0.3466769E+00
         13   -1    0    0    0    0  0.00000000000E+00  0.00000000000E+00  0.14999999963E+04  0.15000000000E+04  0.10566000000E+00 0.  1.
        994   -1    0    0    0    0 -0.00000000000E+00 -0.00000000000E+00  0.11368683772E-12  0.17120000000E+03  0.17120000000E+03 0.  0.
         13    1    1    2    0    0 -0.77100778077E+01 -0.79530592398E+01  0.77085943380E+01  0.13495556371E+02  0.10566000000E+00 0.  1.
        994    1    1    2    0    0 -0.74746316292E+00  0.59167137827E+01  0.60569472528E+01  0.17141088884E+03  0.17120000000E+03 0.  0.
        998    1    1    2    0    0  0.84575409707E+01  0.20363454571E+01  0.14862344547E+04  0.14862935548E+04  0.10000000000E+02 0.  1.
</event>
<event>
 5    1  0.1533416E-008  0.3791718E+03  0.7957747E-01  0.3454773E+00
         13   -1    0    0    0    0  0.00000000000E+00  0.00000000000E+00  0.14999999963E+04  0.15000000000E+04  0.10566000000E+00 0.  1.
        994   -1    0    0    0    0 -0.00000000000E+00 -0.00000000000E+00  0.11368683772E-12  0.17120000000E+03  0.17120000000E+03 0.  0.
         13    1    1    2    0    0  0.14964331299E+02  0.14407927002E+02  0.45338173495E+02  0.49870639776E+02  0.10566000000E+00 0.  1.
        994    1    1    2    0    0 -0.62224592843E+01 -0.16164274141E+02  0.55580846538E+01  0.17216368683E+03  0.17120000000E+03 0.  0.
        998    1    1    2    0    0 -0.87418720147E+01  0.17563471390E+01  0.14491037381E+04  0.14491656734E+04  0.10000000000E+02 0.  1.
</event>
<event>
 5    1  0.1533416E-008  0.3815966E+03  0.7957747E-01  0.3444236E+00
         13   -1    0    0    0    0  0.00000000000E+00  0.00000000000E+00  0.14999999963E+04  0.15000000000E+04  0.10566000000E+00 0.  1.
        994   -1    0    0    0    0 -0.00000000000E+00 -0.00000000000E+00  0.11368683772E-12  0.17120000000E+03  0.17120000000E+03 0.  0.
         13    1    1    2    0    0  0.78686457776E+01  0.23056229898E+02  0.86157265595E+02  0.89535417028E+02  0.10566000000E+00 0.  1.
        994    1    1    2    0    0  0.22978804983E+01 -0.21167774664E+02  0.48383789497E+01  0.17258680381E+03  0.17120000000E+03 0.  0.
        998    1    1    2    0    0 -0.10166526276E+02 -0.18884552342E+01  0.14090043517E+04  0.14090777792E+04  0.10000000000E+02 0.  1.
</event>
<event>
 5    1  0.1533416E-008  0.3803491E+03  0.7957747E-01  0.3449640E+00
         13   -1    0    0    0    0  0.00000000000E+00  0.00000000000E+00  0.14999999963E+04  0.15000000000E+04  0.10566000000E+00 0.  1.
        994   -1    0    0    0    0 -0.00000000000E+00 -0.00000000000E+00  0.11368683772E-12  0.17120000000E+03  0.17120000000E+03 0.  0.
         13    1    1    2    0    0  0.21712805381E+02  0.13483373940E+02  0.92138251937E+02  0.95617550295E+02  0.10566000000E+00 0.  1.
        994    1    1    2    0    0  0.83250172766E+01  0.35229131805E+01  0.42299383166E+01  0.17149066799E+03  0.17120000000E+03 0.  0.
        998    1    1    2    0    0 -0.30037822658E+02 -0.17006287120E+02  0.14036318060E+04  0.14040917817E+04  0.10000000000E+02 0.  1.
</event>
<event>
 5    1  0.1533416E-008  0.3845565E+03  0.7957747E-01  0.3431555E+00
         13   -1    0    0    0    0  0.00000000000E+00  0.00000000000E+00  0.14999999963E+04  0.15000000000E+04  0.10566000000E+00 0.  1.
        994   -1    0    0    0    0 -0.00000000000E+00 -0.00000000000E+00  0.11368683772E-12  0.17120000000E+03  0.17120000000E+03 0.  0.
         13    1    1    2    0    0 -0.28640775266E+01 -0.16794430082E+02  0.90514599324E+02  0.92104069816E+02  0.10566000000E+00 0.  1.
        994    1    1    2    0    0 -0.96568653937E+01 -0.75457625629E+01  0.23452995041E+01  0.17165411155E+03  0.17120000000E+03 0.  0.
        998    1    1    2    0    0  0.12520942920E+02  0.24340192645E+02  0.14071400975E+04  0.14074418186E+04  0.10000000000E+02 0.  1.
</event>
<event>
 5    1  0.1533416E-008  0.3807664E+03  0.7957747E-01  0.3447828E+00
         13   -1    0    0    0    0  0.00000000000E+00  0.00000000000E+00  0.14999999963E+04  0.15000000000E+04  0.10566000000E+00 0.  1.
        994   -1    0    0    0    0 -0.00000000000E+00 -0.00000000000E+00  0.11368683772E-12  0.17120000000E+03  0.17120000000E+03 0.  0.
         13    1    1    2    0    0 -0.11072911988E+02 -0.15365758760E+02  0.45901898859E+02  0.49655930211E+02  0.10566000000E+00 0.  1.
        994    1    1    2    0    0  0.11245058657E+02  0.11452826406E+02  0.46062436229E+01  0.17201242995E+03  0.17120000000E+03 0.  0.
        998    1    1    2    0    0 -0.17214666910E+00  0.39129323538E+01  0.14494918538E+04  0.14495316398E+04  0.10000000000E+02 0.  1.
</event>
<event>
 5    1  0.1533416E-008  0.3838602E+03  0.7957747E-01  0.3434521E+00
         13   -1    0    0    0    0  0.00000000000E+00  0.00000000000E+00  0.14999999963E+04  0.15000000000E+04  0.10566000000E+00 0. -1.
        994   -1    0    0    0    0 -0.00000000000E+00 -0.00000000000E+00  0.11368683772E-12  0.17120000000E+03  0.17120000000E+03 0.  0.
         13    1    1    2    0    0  0.63195704726E+01 -0.11583136210E+02  0.40747223909E+02  0.42830519909E+02  0.10566000000E+00 0. -1.
        994    1    1    2    0    0  0.91135690444E+01  0.43303517416E+01  0.25332078795E+01  0.17151579003E+03  0.17120000000E+03 0.  0.
        998    1    1    2    0    0 -0.15433139517E+02  0.72527844685E+01  0.14567195645E+04  0.14568536901E+04  0.10000000000E+02 0. -1.
</event>
<event>
 5    1  0.1533416E-008  0.3736806E+03  0.7957747E-01  0.3479145E+00
         13   -1    0    0    0    0  0.00000000000E+00  0.00000000000E+00  0.14999999963E+04  0.15000000000E+04  0.10566000000E+00 0.  1.
        994   -1    0    0    0    0 -0.00000000000E+00 -0.00000000000E+00  0.11368683772E-12  0.17120000000E+03  0.17120000000E+03 0.  0.
         13    1    1    2    0    0  0.10100471705E+03  0.54031711017E+02  0.56452863116E+03  0.57603295498E+03  0.10566000000E+00 0.  1.
        994    1    1    2    0    0 -0.93206446111E+02 -0.59762398847E+02  0.50444952824E+02  0.21003123382E+03  0.17120000000E+03 0.  0.
        998    1    1    2    0    0 -0.77982709414E+01  0.57306878296E+01  0.88502641229E+03  0.88513581120E+03  0.10000000000E+02 0.  0.
</event>
<event>
 5    1  0.1533416E-008  0.3814458E+03  0.7957747E-01  0.3444887E+00
         13   -1    0    0    0    0  0.00000000000E+00  0.00000000000E+00  0.14999999963E+04  0.15000000000E+04  0.10566000000E+00 0. -1.
        994   -1    0    0    0    0 -0.00000000000E+00 -0.00000000000E+00  0.11368683772E-12  0.17120000000E+03  0.17120000000E+03 0.  0.
         13    1    1    2    0    0 -0.11458634177E+02  0.11764716248E+02  0.38012991365E+02  0.41409027061E+02  0.10566000000E+00 0. -1.
        994    1    1    2    0    0  0.69082818911E+01 -0.12102434358E+02  0.40514578486E+01  0.17181399124E+03  0.17120000000E+03 0.  0.
        998    1    1    2    0    0  0.45503522862E+01  0.33771811033E+00  0.14579355471E+04  0.14579769817E+04  0.10000000000E+02 0. -1.
</event>
<event>
 5    1  0.1533416E-008  0.3773819E+03  0.7957747E-01  0.3462638E+00
         13   -1    0    0    0    0  0.00000000000E+00  0.00000000000E+00  0.14999999963E+04  0.15000000000E+04  0.10566000000E+00 0. -1.
        994   -1    0    0    0    0 -0.00000000000E+00 -0.00000000000E+00  0.11368683772E-12  0.17120000000E+03  0.17120000000E+03 0.  0.
         13    1    1    2    0    0 -0.34714249412E+02 -0.17893328655E+02  0.12330502903E+03  0.12934214963E+03  0.10566000000E+00 0. -1.
        994    1    1    2    0    0  0.49669349079E+02  0.32785648546E+01  0.13862028682E+02  0.17882781960E+03  0.17120000000E+03 0.  0.
        998    1    1    2    0    0 -0.14955099667E+02  0.14614763800E+02  0.13628329386E+04  0.13630300308E+04  0.10000000000E+02 0. -1.
</event>
<event>
 5    1  0.1533416E-008  0.3697507E+03  0.7957747E-01  0.3497037E+00
         13   -1    0    0    0    0  0.00000000000E+00  0.00000000000E+00  0.14999999963E+04  0.15000000000E+04  0.10566000000E+00 0. -1.
        994   -1    0    0    0    0 -0.00000000000E+00 -0.00000000000E+00  0.11368683772E-12  0.17120000000E+03  0.17120000000E+03 0.  0.
         13    1    1    2    0    0  0.29246712931E+01  0.11928847471E+02  0.19965307926E+01  0.12443809842E+02  0.10566000000E+00 0. -1.
        994    1    1    2    0    0  0.55144085020E+00 -0.80986907797E+01  0.11037250731E+02  0.17174735452E+03  0.17120000000E+03 0.  0.
        998    1    1    2    0    0 -0.34761121433E+01 -0.38301566910E+01  0.14869662148E+04  0.14870088356E+04  0.10000000000E+02 0. -1.
</event>
<event>
 5    1  0.1533416E-008  0.3855353E+03  0.7957747E-01  0.3427405E+00
         13   -1    0    0    0    0  0.00000000000E+00  0.00000000000E+00  0.14999999963E+04  0.15000000000E+04  0.10566000000E+00 0. -1.
        994   -1    0    0    0    0 -0.00000000000E+00 -0.00000000000E+00  0.11368683772E-12  0.17120000000E+03  0.17120000000E+03 0.  0.
         13    1    1    2    0    0  0.67707928913E+01  0.90012127111E+01  0.45850254877E+02  0.47213583882E+02  0.10566000000E+00 0. -1.
        994    1    1    2    0    0 -0.10526621738E+02 -0.55357217749E+01  0.18291185391E+01  0.17162237516E+03  0.17120000000E+03 0.  0.
        998    1    1    2    0    0  0.37558288466E+01 -0.34654909361E+01  0.14523206229E+04  0.14523640410E+04  0.10000000000E+02 0. -1.
</event>
<event>
 5    1  0.1533416E-008  0.3858354E+03  0.7957747E-01  0.3426137E+00
         13   -1    0    0    0    0  0.00000000000E+00  0.00000000000E+00  0.14999999963E+04  0.15000000000E+04  0.10566000000E+00 0. -1.
        994   -1    0    0    0    0 -0.00000000000E+00 -0.00000000000E+00  0.11368683772E-12  0.17120000000E+03  0.17120000000E+03 0.  0.
         13    1    1    2    0    0 -0.11198302177E+00 -0.12148103806E+02  0.55138958842E+02  0.56461534804E+02  0.10566000000E+00 0. -1.
        994    1    1    2    0    0 -0.84418226216E+01  0.24244766066E+02  0.33805567925E+01  0.17314716635E+03  0.17120000000E+03 0.  0.
        998    1    1    2    0    0  0.85538056434E+01 -0.12096662260E+02  0.14414804806E+04  0.14415912988E+04  0.10000000000E+02 0. -1.
</event>
<event>
 5    1  0.1533416E-008  0.3829636E+03  0.7957747E-01  0.3438355E+00
         13   -1    0    0    0    0  0.00000000000E+00  0.00000000000E+00  0.14999999963E+04  0.15000000000E+04  0.10566000000E+00 0.  1.
        994   -1    0    0    0    0 -0.00000000000E+00 -0.00000000000E+00  0.11368683772E-12  0.17120000000E+03  0.17120000000E+03 0.  0.
         13    1    1    2    0    0  0.20334797471E+02  0.13737642790E+02  0.10590441767E+03  0.10871054992E+03  0.10566000000E+00 0.  1.
        994    1    1    2    0    0 -0.22177235195E+02 -0.12463874063E+02  0.47899939819E+01  0.17314607117E+03  0.17120000000E+03 0.  0.
        998    1    1    2    0    0  0.18424377242E+01 -0.12737687270E+01  0.13893055846E+04  0.13893433789E+04  0.10000000000E+02 0.  1.
</event>
<event>
 5    1  0.1533416E-008  0.3840099E+03  0.7957747E-01  0.3433882E+00
         13   -1    0    0    0    0  0.00000000000E+00  0.00000000000E+00  0.14999999963E+04  0.15000000000E+04  0.10566000000E+00 0.  1.
        994   -1    0    0    0    0 -0.00000000000E+00 -0.00000000000E+00  0.11368683772E-12  0.17120000000E+03  0.17120000000E+03 0.  0.
         13    1    1    2    0    0 -0.10372962321E+02 -0.94980204530E+01  0.45449250363E+02  0.47575794922E+02  0.10566000000E+00 0.  1.
        994    1    1    2    0    0  0.65340626155E+01  0.11330825005E+02  0.26871643429E+01  0.17171995348E+03  0.17120000000E+03 0.  0.
        998    1    1    2    0    0  0.38388997059E+01 -0.18328045520E+01  0.14518635816E+04  0.14519042516E+04  0.10000000000E+02 0.  1.
</event>
<event>
 5    1  0.1533416E-008  0.3843090E+03  0.7957747E-01  0.3432608E+00
         13   -1    0    0    0    0  0.00000000000E+00  0.00000000000E+00  0.14999999963E+04  0.15000000000E+04  0.10566000000E+00 0.  1.
        994   -1    0    0    0    0 -0.00000000000E+00 -0.00000000000E+00  0.11368683772E-12  0.17120000000E+03  0.17120000000E+03 0.  0.
         13    1    1    2    0    0  0.27786791889E+02  0.20073228759E+02  0.19956849749E+03  0.20249107800E+03  0.10566000000E+00 0.  1.
        994    1    1    2    0    0 -0.29641569410E+02 -0.69911315994E+02  0.21216306132E+02  0.18848285436E+03  0.17120000000E+03 0.  0.
        998    1    1    2    0    0  0.18547775211E+01  0.49838087235E+02  0.12792151927E+04  0.12802260676E+04  0.10000000000E+02 0.  1.
</event>
<event>
 5    1  0.1533416E-008  0.3853002E+03  0.7957747E-01  0.3428400E+00
         13   -1    0    0    0    0  0.00000000000E+00  0.00000000000E+00  0.14999999963E+04  0.15000000000E+04  0.10566000000E+00 0.  1.
        994   -1    0    0    0    0 -0.00000000000E+00 -0.00000000000E+00  0.11368683772E-12  0.17120000000E+03  0.17120000000E+03 0.  0.
         13    1    1    2    0    0  0.13502074116E+01 -0.14338272258E+02  0.69654876362E+02  0.71128208725E+02  0.10566000000E+00 0.  1.
        994    1    1    2    0    0  0.13868452612E+01  0.10868744270E+02  0.18756835953E+01  0.17156051740E+03  0.17120000000E+03 0.  0.
        998    1    1    2    0    0 -0.27370526728E+01  0.34695279879E+01  0.14284694363E+04  0.14285112739E+04  0.10000000000E+02 0.  1.
</event>
<event>
 5    1  0.1533416E-008  0.2854567E+03  0.7957747E-01  0.4005647E+00
         13   -1    0    0    0    0  0.00000000000E+00  0.00000000000E+00  0.14999999963E+04  0.15000000000E+04  0.10566000000E+00 0. -1.
        994   -1    0    0    0    0 -0.00000000000E+00 -0.00000000000E+00  0.11368683772E-12  0.17120000000E+03  0.17120000000E+03 0.  0.
         13    1    1    2    0    0 -0.10970765249E+03  0.61199206343E+02  0.73228903418E+03  0.74298610527E+03  0.10566000000E+00 0. -1.
        994    1    1    2    0    0  0.11091736995E+03  0.76422656773E+02  0.88499440963E+02  0.23512693694E+03  0.17120000000E+03 0.  0.
        998    1    1    2    0    0 -0.12097174567E+01 -0.13762186312E+03  0.67921152113E+03  0.69308695779E+03  0.10000000000E+02 0. -1.
</event>
<event>
 5    1  0.1533416E-008  0.3773276E+03  0.7957747E-01  0.3462878E+00
         13   -1    0    0    0    0  0.00000000000E+00  0.00000000000E+00  0.14999999963E+04  0.15000000000E+04  0.10566000000E+00 0. -1.
        994   -1    0    0    0    0 -0.00000000000E+00 -0.00000000000E+00  0.11368683772E-12  0.17120000000E+03  0.17120000000E+03 0.  0.
         13    1    1    2    0    0  0.29944748433E+02  0.11767460525E+03  0.70855194785E+03  0.71888098781E+03  0.10566000000E+00 0. -1.
        994    1    1    2    0    0 -0.39878601581E+02 -0.11243328195E+03  0.55099498202E+02  0.21581691420E+03  0.17120000000E+03 0.  0.
        998    1    1    2    0    0  0.99338531479E+01 -0.52413233050E+01  0.73634855023E+03  0.73650209798E+03  0.10000000000E+02 0. -1.
</event>
<event>
 5    1  0.1533416E-008  0.3827110E+03  0.7957747E-01  0.3439439E+00
         13   -1    0    0    0    0  0.00000000000E+00  0.00000000000E+00  0.14999999963E+04  0.15000000000E+04  0.10566000000E+00 0. -1.
        994   -1    0    0    0    0 -0.00000000000E+00 -0.00000000000E+00  0.11368683772E-12  0.17120000000E+03  0.17120000000E+03 0.  0.
         13    1    1    2    0    0 -0.66324256422E+01  0.31522968618E+02  0.17672933516E+03  0.17964118595E+03  0.10566000000E+00 0. -1.
        994    1    1    2    0    0 -0.22423473872E+02 -0.32113247990E+02  0.78703233376E+01  0.17579947345E+03  0.17120000000E+03 0.  0.
        998    1    1    2    0    0  0.29055899514E+02  0.59027937227E+00  0.13154003378E+04  0.13157593406E+04  0.10000000000E+02 0. -1.
</event>
<event>
 5    1  0.1533416E-008  0.3860702E+03  0.7957747E-01  0.3425146E+00
         13   -1    0    0    0    0  0.00000000000E+00  0.00000000000E+00  0.14999999963E+04  0.15000000000E+04  0.10566000000E+00 0.  1.
        994   -1    0    0    0    0 -0.00000000000E+00 -0.00000000000E+00  0.11368683772E-12  0.17120000000E+03  0.17120000000E+03 0.  0.
         13    1    1    2    0    0 -0.10433207338E+02  0.76866703493E+00  0.50374596749E+02  0.51449526976E+02  0.10566000000E+00 0.  1.
        994    1    1    2    0    0  0.73132755631E+01  0.21164046770E+01  0.12897368324E+01  0.17137405460E+03  0.17120000000E+03 0.  0.
        998    1    1    2    0    0  0.31199317748E+01 -0.28850717119E+01  0.14483356627E+04  0.14483764184E+04  0.10000000000E+02 0.  1.
</event>
<event>
 5    1  0.1533416E-008  0.3840285E+03  0.7957747E-01  0.3433803E+00
         13   -1    0    0    0    0  0.00000000000E+00  0.00000000000E+00  0.14999999963E+04  0.15000000000E+04  0.10566000000E+00 0.  1.
        994   -1    0    0    0    0 -0.00000000000E+00 -0.00000000000E+00  0.11368683772E-12  0.17120000000E+03  0.17120000000E+03 0.  0.
         13    1    1    2    0    0 -0.17925710940E+01  0.18700685380E+02  0.74199989074E+02  0.76541351487E+02  0.10566000000E+00 0.  1.
        994    1    1    2    0    0  0.92722640383E+00 -0.31334033458E+02  0.53618928710E+01  0.17412889277E+03  0.17120000000E+03 0.  0.
        998    1    1    2    0    0  0.86534469014E+00  0.12633348077E+02  0.14204381143E+04  0.14205297557E+04  0.10000000000E+02 0.  1.
</event>
<event>
 5    1  0.1533416E-008  0.3846091E+03  0.7957747E-01  0.3431332E+00
         13   -1    0    0    0    0  0.00000000000E+00  0.00000000000E+00  0.14999999963E+04  0.15000000000E+04  0.10566000000E+00 0. -1.
        994   -1    0    0    0    0 -0.00000000000E+00 -0.00000000000E+00  0.11368683772E-12  0.17120000000E+03  0.17120000000E+03 0.  0.
         13    1    1    2    0    0 -0.53969234537E+01  0.86655991831E+01  0.28682958792E+02  0.30445733380E+02  0.10566000000E+00 0. -1.
        994    1    1    2    0    0  0.31204883645E+01 -0.10492316213E+01  0.18600509936E+01  0.17124175345E+03  0.17120000000E+03 0.  0.
        998    1    1    2    0    0  0.22764350892E+01 -0.76163675618E+01  0.14694569865E+04  0.14695125132E+04  0.10000000000E+02 0. -1.
</event>
<event>
 5    1  0.1533416E-008  0.3720569E+03  0.7957747E-01  0.3486491E+00
         13   -1    0    0    0    0  0.00000000000E+00  0.00000000000E+00  0.14999999963E+04  0.15000000000E+04  0.10566000000E+00 0. -1.
        994   -1    0    0    0    0 -0.00000000000E+00 -0.00000000000E+00  0.11368683772E-12  0.17120000000E+03  0.17120000000E+03 0.  0.
         13    1    1    2    0    0 -0.35008709695E+02  0.84192045126E+02  0.31386992295E+03  0.32684591157E+03  0.10566000000E+00 0. -1.
        994    1    1    2    0    0  0.16000596592E+02 -0.66424307349E+02  0.28655980627E+02  0.18654439934E+03  0.17120000000E+03 0.  0.
        998    1    1    2    0    0  0.19008113103E+02 -0.17767737777E+02  0.11574740927E+04  0.11578096891E+04  0.10000000000E+02 0. -1.
</event>
<event>
 5    1  0.1533416E-008  0.3860482E+03  0.7957747E-01  0.3425239E+00
         13   -1    0    0    0    0  0.00000000000E+00  0.00000000000E+00  0.14999999963E+04  0.15000000000E+04  0.10566000000E+00 0. -1.
        994   -1    0    0    0    0 -0.00000000000E+00 -0.00000000000E+00  0.11368683772E-12  0.17120000000E+03  0.17120000000E+03 0.  0.
         13    1    1    2    0    0  0.67869877156E+01  0.98662663958E+01  0.65543910316E+02  0.66628985872E+02  0.10566000000E+00 0. -1.
        994    1    1    2    0    0 -0.17788796746E+01 -0.80503789457E+01  0.13334522450E+01  0.17140359130E+03  0.17120000000E+03 0.  0.
        998    1    1    2    0    0 -0.50081080410E+01 -0.18158874500E+01  0.14331226337E+04  0.14331674228E+04  0.10000000000E+02 0. -1.
</event>
<event>
 5    1  0.1533416E-008  0.3725265E+03  0.7957747E-01  0.3484360E+00
         13   -1    0    0    0    0  0.00000000000E+00  0.00000000000E+00  0.14999999963E+04  0.15000000000E+04  0.10566000000E+00 0. -1.
        994   -1    0    0    0    0 -0.00000000000E+00 -0.00000000000E+00  0.11368683772E-12  0.17120000000E+03  0.17120000000E+03 0.  0.
         13    1    1    2    0    0 -0.47778927228E+02 -0.32311582374E+02  0.24738455090E+03  0.25401966741E+03  0.10566000000E+00 0. -1.
        994    1    1    2    0    0  0.89888102159E+01 -0.37945520760E+01  0.82808236953E+01  0.17167763214E+03  0.17120000000E+03 0.  0.
        998    1    1    2    0    0  0.38790117012E+02  0.36106134450E+02  0.12443346217E+04  0.12455027005E+04  0.10000000000E+02 0. -1.
</event>
<event>
 5    1  0.1533416E-008  0.3762013E+03  0.7957747E-01  0.3467868E+00
         13   -1    0    0    0    0  0.00000000000E+00  0.00000000000E+00  0.14999999963E+04  0.15000000000E+04  0.10566000000E+00 0.  1.
        994   -1    0    0    0    0 -0.00000000000E+00 -0.00000000000E+00  0.11368683772E-12  0.17120000000E+03  0.17120000000E+03 0.  0.
         13    1    1    2    0    0 -0.88120060742E+01 -0.18004598015E+02  0.30359485930E+02  0.36380304434E+02  0.10566000000E+00 0.  1.
        994    1    1    2    0    0  0.40337130100E+01  0.17111876730E+02  0.71102352300E+01  0.17224715560E+03  0.17120000000E+03 0.  0.
        998    1    1    2    0    0  0.47782930642E+01  0.89272128460E+00  0.14625302751E+04  0.14625725400E+04  0.10000000000E+02 0.  1.
</event>
<event>
 5    1  0.1533416E-008  0.3845564E+03  0.7957747E-01  0.3431556E+00
         13   -1    0    0    0    0  0.00000000000E+00  0.00000000000E+00  0.14999999963E+04  0.15000000000E+04  0.10566000000E+00 0.  1.
        994   -1    0    0    0    0 -0.00000000000E+00 -0.00000000000E+00  0.11368683772E-12  0.17120000000E+03  0.17120000000E+03 0.  0.
         13    1    1    2    0    0  0.41887714878E+01  0.98592523289E+01  0.31241865579E+02  0.33027503568E+02  0.10566000000E+00 0.  1.
        994    1    1    2    0    0 -0.55211503384E+01 -0.39290404252E+00  0.19514430926E+01  0.17130057094E+03  0.17120000000E+03 0.  0.
        998    1    1    2    0    0  0.13323788506E+01 -0.94663482864E+01  0.14668066876E+04  0.14668719255E+04  0.10000000000E+02 0.  1.
</event>
<event>
 5    1  0.1533416E-008  0.3861614E+03  0.7957747E-01  0.3424761E+00
         13   -1    0    0    0    0  0.00000000000E+00  0.00000000000E+00  0.14999999963E+04  0.15000000000E+04  0.10566000000E+00 0. -1.
        994   -1    0    0    0    0 -0.00000000000E+00 -0.00000000000E+00  0.11368683772E-12  0.17120000000E+03  0.17120000000E+03 0.  0.
         13    1    1    2    0    0 -0.12247818224E+02 -0.13432791092E+01  0.68020760386E+02  0.69127769077E+02  0.10566000000E+00 0. -1.
        994    1    1    2    0    0  0.16702036062E+02  0.51800602758E+01  0.20571145641E+01  0.17210305852E+03  0.17120000000E+03 0.  0.
        998    1    1    2    0    0 -0.44542178381E+01 -0.38367811666E+01  0.14299221213E+04  0.14299691724E+04  0.10000000000E+02 0. -1.
</event>
<event>
 5    1  0.2901168E-008  0.3857841E+03  0.7957747E-01  0.3426354E+00
         13   -1    0    0    0    0  0.00000000000E+00  0.00000000000E+00  0.14999999963E+04  0.15000000000E+04  0.10566000000E+00 0. -1.
        994   -1    0    0    0    0 -0.00000000000E+00 -0.00000000000E+00  0.11368683772E-12  0.17120000000E+03  0.17120000000E+03 0.  0.
         13    1    1    2    0    0 -0.78011442426E+01 -0.72993970479E+01  0.47766181482E+02  0.48946484104E+02  0.10566000000E+00 0. -1.
        994    1    1    2    0    0  0.15161745802E+01  0.18165910736E+01  0.12597130142E+01  0.17122098489E+03  0.17120000000E+03 0.  0.
        998    1    1    2    0    0  0.62849696624E+01  0.54828059744E+01  0.14509741018E+04  0.14510325310E+04  0.10000000000E+02 0. -1.
</event>
<event>
 5    1  0.1606508E-008  0.3859823E+03  0.7957747E-01  0.3425517E+00
         13   -1    0    0    0    0  0.00000000000E+00  0.00000000000E+00  0.14999999963E+04  0.15000000000E+04  0.10566000000E+00 0. -1.
        994   -1    0    0    0    0 -0.00000000000E+00 -0.00000000000E+00  0.11368683772E-12  0.17120000000E+03  0.17120000000E+03 0.  0.
         13    1    1    2    0    0  0.99556332292E+00  0.12105721157E+02  0.65907287780E+02  0.67017321474E+02  0.10566000000E+00 0. -1.
        994    1    1    2    0    0 -0.15573023282E+01 -0.66897639974E+01  0.12979194911E+01  0.17134264714E+03  0.17120000000E+03 0.  0.
        998    1    1    2    0    0  0.56173900526E+00 -0.54159571594E+01  0.14327947890E+04  0.14328400314E+04  0.10000000000E+02 0. -1.
</event>
<event>
 5    1  0.1533416E-008  0.3855658E+03  0.7957747E-01  0.3427276E+00
         13   -1    0    0    0    0  0.00000000000E+00  0.00000000000E+00  0.14999999963E+04  0.15000000000E+04  0.10566000000E+00 0. -1.
        994   -1    0    0    0    0 -0.00000000000E+00 -0.00000000000E+00  0.11368683772E-12  0.17120000000E+03  0.17120000000E+03 0.  0.
         13    1    1    2    0    0  0.53395111229E+01 -0.10011830816E+02  0.47299212688E+02  0.48641276918E+02  0.10566000000E+00 0. -1.
        994    1    1    2    0    0 -0.28035477730E+01  0.97420746945E+01  0.16869335549E+01  0.17150817370E+03  0.17120000000E+03 0.  0.
        998    1    1    2    0    0 -0.25359633498E+01  0.26975612163E+00  0.14510138500E+04  0.14510505494E+04  0.10000000000E+02 0. -1.
</event>
<event>
 5    1  0.2283920E-008  0.3863594E+03  0.7957747E-01  0.3423927E+00
         13   -1    0    0    0    0  0.00000000000E+00  0.00000000000E+00  0.14999999963E+04  0.15000000000E+04  0.10566000000E+00 0.  1.
        994   -1    0    0    0    0 -0.00000000000E+00 -0.00000000000E+00  0.11368683772E-12  0.17120000000E+03  0.17120000000E+03 0.  0.
         13    1    1    2    0    0  0.35116297560E+01 -0.10074134766E+02  0.64301107831E+02  0.65180237550E+02  0.10566000000E+00 0.  1.
        994    1    1    2    0    0 -0.44064598828E+01 -0.15490875825E+01  0.10281283700E+01  0.17126679074E+03  0.17120000000E+03 0.  0.
        998    1    1    2    0    0  0.89483012679E+00  0.11623222348E+02  0.14346707601E+04  0.14347529717E+04  0.10000000000E+02 0.  1.
</event>
<event>
 5    1  0.1533416E-008  0.4370760E+03  0.7957747E-01  0.3234970E+00
         13   -1    0    0    0    0  0.00000000000E+00  0.00000000000E+00  0.14999999963E+04  0.15000000000E+04  0.10566000000E+00 0.  1.
        994   -1    0    0    0    0 -0.00000000000E+00 -0.00000000000E+00  0.11368683772E-12  0.17120000000E+03  0.17120000000E+03 0.  0.
         13    1    1    2    0    0 -0.14037749158E+03  0.54891234856E+02  0.20265338294E+03  0.25256146299E+03  0.10566000000E+00 0.  1.
        994    1    1    2    0    0  0.10201145977E+03 -0.45375265538E+02  0.11291399341E+03  0.23350430950E+03  0.17120000000E+03 0.  0.
        998    1    1    2    0    0  0.38366031803E+02 -0.95159693182E+01  0.11844326199E+04  0.11851342275E+04  0.10000000000E+02 0.  1.
</event>
<event>
 5    1  0.1533416E-008  0.3787695E+03  0.7957747E-01  0.3456534E+00
         13   -1    0    0    0    0  0.00000000000E+00  0.00000000000E+00  0.14999999963E+04  0.15000000000E+04  0.10566000000E+00 0. -1.
        994   -1    0    0    0    0 -0.00000000000E+00 -0.00000000000E+00  0.11368683772E-12  0.17120000000E+03  0.17120000000E+03 0.  0.
         13    1    1    2    0    0 -0.60396946944E+00 -0.33426565099E+02  0.12309854961E+03  0.12755768935E+03  0.10566000000E+00 0. -1.
        994    1    1    2    0    0 -0.20816941627E+02  0.95858539711E+01  0.65205587263E+01  0.17285019914E+03  0.17120000000E+03 0.  0.
        998    1    1    2    0    0  0.21420911097E+02  0.23840711128E+02  0.13703808879E+04  0.13707921115E+04  0.10000000000E+02 0. -1.
</event>
<event>
 5    1  0.1533416E-008  0.3733799E+03  0.7957747E-01  0.3480500E+00
         13   -1    0    0    0    0  0.00000000000E+00  0.00000000000E+00  0.14999999963E+04  0.15000000000E+04  0.10566000000E+00 0.  1.
        994   -1    0    0    0    0 -0.00000000000E+00 -0.00000000000E+00  0.11368683772E-12  0.17120000000E+03  0.17120000000E+03 0.  0.
         13    1    1    2    0    0 -0.57482334835E+02 -0.34966671659E+01  0.19298819187E+03  0.20139736559E+03  0.10566000000E+00 0.  1.
        994    1    1    2    0    0  0.59416340260E+02 -0.35903491504E+02  0.24168528871E+02  0.18631403592E+03  0.17120000000E+03 0.  0.
        998    1    1    2    0    0 -0.19340054248E+01  0.39400158670E+02  0.12828432755E+04  0.12834885985E+04  0.10000000000E+02 0.  1.
</event>
<event>
 5    1  0.1533416E-008  0.3837224E+03  0.7957747E-01  0.3435109E+00
         13   -1    0    0    0    0  0.00000000000E+00  0.00000000000E+00  0.14999999963E+04  0.15000000000E+04  0.10566000000E+00 0.  1.
        994   -1    0    0    0    0 -0.00000000000E+00 -0.00000000000E+00  0.11368683772E-12  0.17120000000E+03  0.17120000000E+03 0.  0.
         13    1    1    2    0    0 -0.97027293427E+01  0.20687173941E+02  0.10427466160E+03  0.10674885638E+03  0.10566000000E+00 0.  1.
        994    1    1    2    0    0  0.10020529714E+02 -0.26466724711E+02  0.49150902868E+01  0.17359290494E+03  0.17120000000E+03 0.  0.
        998    1    1    2    0    0 -0.31780037126E+00  0.57795507703E+01  0.13908102444E+04  0.13908582387E+04  0.10000000000E+02 0.  1.
</event>
<event>
 5    1  0.1533416E-008  0.3751558E+03  0.7957747E-01  0.3472526E+00
         13   -1    0    0    0    0  0.00000000000E+00  0.00000000000E+00  0.14999999963E+04  0.15000000000E+04  0.10566000000E+00 0. -1.
        994   -1    0    0    0    0 -0.00000000000E+00 -0.00000000000E+00  0.11368683772E-12  0.17120000000E+03  0.17120000000E+03 0.  0.
         13    1    1    2    0    0 -0.30244224586E+02 -0.41022907541E+02  0.29845343974E+03  0.30277394029E+03  0.10566000000E+00 0. -1.
        994    1    1    2    0    0 -0.35733593863E+02 -0.66103145195E+00  0.10950693505E+02  0.17523322853E+03  0.17120000000E+03 0.  0.
        998    1    1    2    0    0  0.65977818450E+02  0.41683938993E+02  0.11905958630E+04  0.11931928312E+04  0.10000000000E+02 0. -1.
</event>
<event>
 5    1  0.1533416E-008  0.3858320E+03  0.7957747E-01  0.3426151E+00
         13   -1    0    0    0    0  0.00000000000E+00  0.00000000000E+00  0.14999999963E+04  0.15000000000E+04  0.10566000000E+00 0.  1.
        994   -1    0    0    0    0 -0.00000000000E+00 -0.00000000000E+00  0.11368683772E-12  0.17120000000E+03  0.17120000000E+03 0.  0.
         13    1    1    2    0    0  0.82138550828E+01  0.61678558973E+01  0.44111756166E+02  0.45292030842E+02  0.10566000000E+00 0.  1.
        994    1    1    2    0    0 -0.53038655713E+01 -0.18711795170E+01  0.13213572403E+01  0.17129745558E+03  0.17120000000E+03 0.  0.
        998    1    1    2    0    0 -0.29099895115E+01 -0.42966763803E+01  0.14545668829E+04  0.14546105136E+04  0.10000000000E+02 0.  1.
</event>
<event>
 5    1  0.1533416E-008  0.3800787E+03  0.7957747E-01  0.3450816E+00
         13   -1    0    0    0    0  0.00000000000E+00  0.00000000000E+00  0.14999999963E+04  0.15000000000E+04  0.10566000000E+00 0.  1.
        994   -1    0    0    0    0 -0.00000000000E+00 -0.00000000000E+00  0.11368683772E-12  0.17120000000E+03  0.17120000000E+03 0.  0.
         13    1    1    2    0    0  0.16546864434E+02  0.29423382812E-01  0.32261216654E+02  0.36257369628E+02  0.10566000000E+00 0.  1.
        994    1    1    2    0    0 -0.70162503484E+01  0.76645524143E+00  0.42599354976E+01  0.17139837302E+03  0.17120000000E+03 0.  0.
        998    1    1    2    0    0 -0.95306140853E+01 -0.79587862424E+00  0.14634788441E+04  0.14635442574E+04  0.10000000000E+02 0.  1.
</event>
<event>
 5    1  0.1533416E-008  0.3200520E+03  0.7957747E-01  0.3762510E+00
         13   -1    0    0    0    0  0.00000000000E+00  0.00000000000E+00  0.14999999963E+04  0.15000000000E+04  0.10566000000E+00 0.  1.
        994   -1    0    0    0    0 -0.00000000000E+00 -0.00000000000E+00  0.11368683772E-12  0.17120000000E+03  0.17120000000E+03 0.  0.
         13    1    1    2    0    0  0.14928976277E+03 -0.90259668737E+02  0.91708897569E+03  0.93353438156E+03  0.10566000000E+00 0.  1.
        994    1    1    2    0    0 -0.66586138881E+02  0.13488448071E+03  0.10575205590E+03  0.25123788400E+03  0.17120000000E+03 0.  0.
        998    1    1    2    0    0 -0.82703623891E+02 -0.44624811974E+02  0.47715896469E+03  0.48642773444E+03  0.10000000000E+02 0. -1.
</event>
<event>
 5    1  0.1533416E-008  0.3747058E+03  0.7957747E-01  0.3474540E+00
         13   -1    0    0    0    0  0.00000000000E+00  0.00000000000E+00  0.14999999963E+04  0.15000000000E+04  0.10566000000E+00 0.  1.
        994   -1    0    0    0    0 -0.00000000000E+00 -0.00000000000E+00  0.11368683772E-12  0.17120000000E+03  0.17120000000E+03 0.  0.
         13    1    1    2    0    0  0.63972722856E+02  0.65044321244E+02  0.46899238055E+03  0.47778356729E+03  0.10566000000E+00 0.  1.
        994    1    1    2    0    0 -0.53228544644E+02 -0.58795845129E+02  0.28543711024E+02  0.19082560837E+03  0.17120000000E+03 0.  0.
        998    1    1    2    0    0 -0.10744178212E+02 -0.62484761150E+01  0.10024639047E+04  0.10025908243E+04  0.10000000000E+02 0.  1.
</event>
<event>
 5    1  0.1533416E-008  0.3790719E+03  0.7957747E-01  0.3455209E+00
         13   -1    0    0    0    0  0.00000000000E+00  0.00000000000E+00  0.14999999963E+04  0.15000000000E+04  0.10566000000E+00 0.  1.
        994   -1    0    0    0    0 -0.00000000000E+00 -0.00000000000E+00  0.11368683772E-12  0.17120000000E+03  0.17120000000E+03 0.  0.
         13    1    1    2    0    0 -0.10087333951E+02  0.25611498685E+02  0.79010006184E+02  0.83667768061E+02  0.10566000000E+00 0.  1.
        994    1    1    2    0    0  0.94917367653E+01 -0.19736123758E+02  0.62122255864E+01  0.17270680182E+03  0.17120000000E+03 0.  0.
        998    1    1    2    0    0  0.59559718606E+00 -0.58753749268E+01  0.14147777645E+04  0.14148254301E+04  0.10000000000E+02 0.  1.
</event>
<event>
 5    1  0.1533416E-008  0.3843735E+03  0.7957747E-01  0.3432334E+00
         13   -1    0    0    0    0  0.00000000000E+00  0.00000000000E+00  0.14999999963E+04  0.15000000000E+04  0.10566000000E+00 0. -1.
        994   -1    0    0    0    0 -0.00000000000E+00 -0.00000000000E+00  0.11368683772E-12  0.17120000000E+03  0.17120000000E+03 0.  0.
         13    1    1    2    0    0  0.43229423086E+01 -0.11605654436E+02  0.39824445375E+02  0.41705834826E+02  0.10566000000E+00 0. -1.
        994    1    1    2    0    0 -0.20216365679E+01  0.40059087769E+01  0.20078577812E+01  0.17127056318E+03  0.17120000000E+03 0.  0.
        998    1    1    2    0    0 -0.23013057406E+01  0.75997456591E+01  0.14581676931E+04  0.14582236020E+04  0.10000000000E+02 0. -1.
</event>
<event>
 5    1  0.1533416E-008  0.3716033E+03  0.7957747E-01  0.3488555E+00
         13   -1    0    0    0    0  0.00000000000E+00  0.00000000000E+00  0.14999999963E+04  0.15000000000E+04  0.10566000000E+00 0.  1.
        994   -1    0    0    0    0 -0.00000000000E+00 -0.00000000000E+00  0.11368683772E-12  0.17120000000E+03  0.17120000000E+03 0.  0.
         13    1    1    2    0    0  0.12936624215E+02  0.32220197149E+01  0.65781545214E+01  0.14866772954E+02  0.10566000000E+00 0.  1.
        994    1    1    2    0    0 -0.17064176264E+02 -0.13997520817E+01  0.94420741386E+01  0.17231290776E+03  0.17120000000E+03 0.  0.
        998    1    1    2    0    0  0.41275520496E+01 -0.18222676332E+01  0.14839797676E+04  0.14840203193E+04  0.10000000000E+02 0.  1.
</event>
<event>
 5    1  0.1533416E-008  0.3794206E+03  0.7957747E-01  0.3453685E+00
         13   -1    0    0    0    0  0.00000000000E+00  0.00000000000E+00  0.14999999963E+04  0.15000000000E+04  0.10566000000E+00 0.  1.
        994   -1    0    0    0    0 -0.00000000000E+00 -0.00000000000E+00  0.11368683772E-12  0.17120000000E+03  0.17120000000E+03 0.  0.
         13    1    1    2    0    0 -0.21893531165E+02  0.22652137218E+02  0.10150750648E+03  0.10628372906E+03  0.10566000000E+00 0.  1.
        994    1    1    2    0    0  0.36722299738E+02 -0.15126677738E+02  0.97271147579E+01  0.17601534149E+03  0.17120000000E+03 0.  0.
        998    1    1    2    0    0 -0.14828768574E+02 -0.75254594802E+01  0.13887653750E+04  0.13889009294E+04  0.10000000000E+02 0.  1.
</event>
<event>
 5    1  0.1533416E-008  0.3726323E+03  0.7957747E-01  0.3483880E+00
         13   -1    0    0    0    0  0.00000000000E+00  0.00000000000E+00  0.14999999963E+04  0.15000000000E+04  0.10566000000E+00 0.  1.
        994   -1    0    0    0    0 -0.00000000000E+00 -0.00000000000E+00  0.11368683772E-12  0.17120000000E+03  0.17120000000E+03 0.  0.
         13    1    1    2    0    0 -0.27456948999E+02 -0.96295464577E+01  0.49667713838E+02  0.57563053908E+02  0.10566000000E+00 0.  1.
        994    1    1    2    0    0  0.26702412509E+02 -0.85837791292E+00  0.10349274431E+02  0.17358082592E+03  0.17120000000E+03 0.  0.
        998    1    1    2    0    0  0.75453648941E+00  0.10487924371E+02  0.14399830080E+04  0.14400561202E+04  0.10000000000E+02 0.  1.
</event>
<event>
 5    1  0.1533416E-008  0.3796637E+03  0.7957747E-01  0.3452624E+00
         13   -1    0    0    0    0  0.00000000000E+00  0.00000000000E+00  0.14999999963E+04  0.15000000000E+04  0.10566000000E+00 0.  1.
        994   -1    0    0    0    0 -0.00000000000E+00 -0.00000000000E+00  0.11368683772E-12  0.17120000000E+03  0.17120000000E+03 0.  0.
         13    1    1    2    0    0  0.68689848647E+00  0.14712513589E+02  0.23459715531E+02  0.27700167914E+02  0.10566000000E+00 0.  1.
        994    1    1    2    0    0 -0.63806281635E+01 -0.95791960721E+01  0.47464823908E+01  0.17165209730E+03  0.17120000000E+03 0.  0.
        998    1    1    2    0    0  0.56937296771E+01 -0.51333175169E+01  0.14717937984E+04  0.14718477348E+04  0.10000000000E+02 0.  1.
</event>
<event>
 5    1  0.1533416E-008  0.3809605E+03  0.7957747E-01  0.3446987E+00
         13   -1    0    0    0    0  0.00000000000E+00  0.00000000000E+00  0.14999999963E+04  0.15000000000E+04  0.10566000000E+00 0. -1.
        994   -1    0    0    0    0 -0.00000000000E+00 -0.00000000000E+00  0.11368683772E-12  0.17120000000E+03  0.17120000000E+03 0.  0.
         13    1    1    2    0    0  0.11921574618E+02  0.11583101549E+01  0.18013554323E+02  0.21632497017E+02  0.10566000000E+00 0. -1.
        994    1    1    2    0    0 -0.11328592316E+02  0.88700394665E+00  0.40794950548E+01  0.17162519063E+03  0.17120000000E+03 0.  0.
        998    1    1    2    0    0 -0.59298230191E+00 -0.20453141016E+01  0.14779069469E+04  0.14779423124E+04  0.10000000000E+02 0. -1.
</event>
<event>
 5    1  0.1533416E-008  0.3841495E+03  0.7957747E-01  0.3433287E+00
         13   -1    0    0    0    0  0.00000000000E+00  0.00000000000E+00  0.14999999963E+04  0.15000000000E+04  0.10566000000E+00 0.  1.
        994   -1    0    0    0    0 -0.00000000000E+00 -0.00000000000E+00  0.11368683772E-12  0.17120000000E+03  0.17120000000E+03 0.  0.
         13    1    1    2    0    0  0.12042198547E+02 -0.96516644093E+01  0.52084801849E+02  0.54323171109E+02  0.10566000000E+00 0.  1.
        994    1    1    2    0    0 -0.20965271677E+02  0.22028512139E+02  0.51086786356E+01  0.17395498429E+03  0.17120000000E+03 0.  0.
        998    1    1    2    0    0  0.89230731302E+01 -0.12376847729E+02  0.14428065158E+04  0.14429218446E+04  0.10000000000E+02 0.  1.
</event>
<event>
 5    1  0.1533416E-008  0.3765019E+03  0.7957747E-01  0.3466533E+00
         13   -1    0    0    0    0  0.00000000000E+00  0.00000000000E+00  0.14999999963E+04  0.15000000000E+04  0.10566000000E+00 0. -1.
        994   -1    0    0    0    0 -0.00000000000E+00 -0.00000000000E+00  0.11368683772E-12  0.17120000000E+03  0.17120000000E+03 0.  0.
         13    1    1    2    0    0  0.57412860397E+01 -0.17441548733E+02  0.25481588846E+02  0.31408478501E+02  0.10566000000E+00 0. -1.
        994    1    1    2    0    0 -0.78947535395E+01  0.19743527294E+02  0.74401471867E+01  0.17267579388E+03  0.17120000000E+03 0.  0.
        998    1    1    2    0    0  0.21534674999E+01 -0.23019785614E+01  0.14670782602E+04  0.14671157276E+04  0.10000000000E+02 0. -1.
</event>
<event>
 5    1  0.1533416E-008  0.3841417E+03  0.7957747E-01  0.3433321E+00
         13   -1    0    0    0    0  0.00000000000E+00  0.00000000000E+00  0.14999999963E+04  0.15000000000E+04  0.10566000000E+00 0. -1.
        994   -1    0    0    0    0 -0.00000000000E+00 -0.00000000000E+00  0.11368683772E-12  0.17120000000E+03  0.17120000000E+03 0.  0.
         13    1    1    2    0    0 -0.15330947827E+02 -0.95284020625E+01  0.75082987888E+02  0.77222371379E+02  0.10566000000E+00 0. -1.
        994    1    1    2    0    0  0.17807976690E+02  0.86392440695E+01  0.33499046254E+01  0.17237291676E+03  0.17120000000E+03 0.  0.
        998    1    1    2    0    0 -0.24770288625E+01  0.88915799304E+00  0.14215671038E+04  0.14216047119E+04  0.10000000000E+02 0. -1.
</event>
<event>
 5    1  0.1533416E-008  0.3800904E+03  0.7957747E-01  0.3450765E+00
         13   -1    0    0    0    0  0.00000000000E+00  0.00000000000E+00  0.14999999963E+04  0.15000000000E+04  0.10566000000E+00 0. -1.
        994   -1    0    0    0    0 -0.00000000000E+00 -0.00000000000E+00  0.11368683772E-12  0.17120000000E+03  0.17120000000E+03 0.  0.
         13    1    1    2    0    0  0.23458235455E+02 -0.46362689142E+02  0.29125771908E+03  0.29585614383E+03  0.10566000000E+00 0. -1.
        994    1    1    2    0    0 -0.20945115767E+02  0.37579679818E+02  0.10298092836E+02  0.17682313459E+03  0.17120000000E+03 0.  0.
        998    1    1    2    0    0 -0.25131196885E+01  0.87830093231E+01  0.11984441844E+04  0.11985207216E+04  0.10000000000E+02 0.  1.
</event>
<event>
 5    1  0.1533416E-008  0.3839911E+03  0.7957747E-01  0.3433962E+00
         13   -1    0    0    0    0  0.00000000000E+00  0.00000000000E+00  0.14999999963E+04  0.15000000000E+04  0.10566000000E+00 0. -1.
        994   -1    0    0    0    0 -0.00000000000E+00 -0.00000000000E+00  0.11368683772E-12  0.17120000000E+03  0.17120000000E+03 0.  0.
         13    1    1    2    0    0  0.10402586402E+02  0.16763163527E+02  0.10594993748E+03  0.10777113654E+03  0.10566000000E+00 0. -1.
        994    1    1    2    0    0  0.33943554003E+01  0.78650390389E+01  0.23740137689E+01  0.17143061695E+03  0.17120000000E+03 0.  0.
        998    1    1    2    0    0 -0.13796941802E+02 -0.24628202566E+02  0.13916760450E+04  0.13919982465E+04  0.10000000000E+02 0. -1.
</event>
<event>
 5    1  0.1533416E-008  0.3811516E+03  0.7957747E-01  0.3446159E+00
         13   -1    0    0    0    0  0.00000000000E+00  0.00000000000E+00  0.14999999963E+04  0.15000000000E+04  0.10566000000E+00 0. -1.
        994   -1    0    0    0    0 -0.00000000000E+00 -0.00000000000E+00  0.11368683772E-12  0.17120000000E+03  0.17120000000E+03 0.  0.
         13    1    1    2    0    0 -0.15232488075E+02 -0.30968469817E+01  0.32897211219E+02  0.36384843330E+02  0.10566000000E+00 0. -1.
        994    1    1    2    0    0  0.77865260874E+01  0.34315031337E+01  0.37940973690E+01  0.17145331836E+03  0.17120000000E+03 0.  0.
        998    1    1    2    0    0  0.74459619876E+01 -0.33465615199E+00  0.14633086877E+04  0.14633618383E+04  0.10000000000E+02 0. -1.
</event>
<event>
 5    1  0.1533416E-008  0.3041330E+03  0.7957747E-01  0.3866948E+00
         13   -1    0    0    0    0  0.00000000000E+00  0.00000000000E+00  0.14999999963E+04  0.15000000000E+04  0.10566000000E+00 0.  1.
        994   -1    0    0    0    0 -0.00000000000E+00 -0.00000000000E+00  0.11368683772E-12  0.17120000000E+03  0.17120000000E+03 0.  0.
         13    1    1    2    0    0 -0.18130951260E+03 -0.72228019280E+02  0.65610848641E+03  0.68452054990E+03  0.10566000000E+00 0.  1.
        994    1    1    2    0    0  0.17970952388E+03  0.66847046451E+02  0.16017931306E+03  0.30287108301E+03  0.17120000000E+03 0.  0.
        998    1    1    2    0    0  0.15999887159E+01  0.53809728291E+01  0.68371219681E+03  0.68380836709E+03  0.10000000000E+02 0.  1.
</event>
<event>
 5    1  0.1533416E-008  0.3815756E+03  0.7957747E-01  0.3444327E+00
         13   -1    0    0    0    0  0.00000000000E+00  0.00000000000E+00  0.14999999963E+04  0.15000000000E+04  0.10566000000E+00 0.  1.
        994   -1    0    0    0    0 -0.00000000000E+00 -0.00000000000E+00  0.11368683772E-12  0.17120000000E+03  0.17120000000E+03 0.  0.
         13    1    1    2    0    0 -0.14970689415E+02 -0.42108274026E+01  0.35670365428E+02  0.38913220668E+02  0.10566000000E+00 0.  1.
        994    1    1    2    0    0  0.37478633452E+01  0.49113369002E+01  0.34668635390E+01  0.17134651106E+03  0.17120000000E+03 0.  0.
        998    1    1    2    0    0  0.11222826070E+02 -0.70050949767E+00  0.14608627673E+04  0.14609402683E+04  0.10000000000E+02 0.  1.
</event>
<event>
 5    1  0.1533416E-008  0.3702594E+03  0.7957747E-01  0.3494700E+00
         13   -1    0    0    0    0  0.00000000000E+00  0.00000000000E+00  0.14999999963E+04  0.15000000000E+04  0.10566000000E+00 0.  1.
        994   -1    0    0    0    0 -0.00000000000E+00 -0.00000000000E+00  0.11368683772E-12  0.17120000000E+03  0.17120000000E+03 0.  0.
         13    1    1    2    0    0 -0.35573289900E+02  0.28987315599E+02  0.10398656310E+03  0.11366151455E+03  0.10566000000E+00 0.  1.
        994    1    1    2    0    0  0.45588636050E+02 -0.20225847436E+02  0.17776004301E+02  0.17920054400E+03  0.17120000000E+03 0.  0.
        998    1    1    2    0    0 -0.10015346150E+02 -0.87614681633E+01  0.13782374289E+04  0.13783379414E+04  0.10000000000E+02 0.  1.
</event>
<event>
 5    1  0.1533416E-008  0.3815766E+03  0.7957747E-01  0.3444322E+00
         13   -1    0    0    0    0  0.00000000000E+00  0.00000000000E+00  0.14999999963E+04  0.15000000000E+04  0.10566000000E+00 0. -1.
        994   -1    0    0    0    0 -0.00000000000E+00 -0.00000000000E+00  0.11368683772E-12  0.17120000000E+03  0.17120000000E+03 0.  0.
         13    1    1    2    0    0 -0.12775752600E+02 -0.96327502263E+01  0.41598807651E+02  0.44569964028E+02  0.10566000000E+00 0. -1.
        994    1    1    2    0    0 -0.21033201428E+02 -0.40847068535E+01  0.48676034813E+01  0.17260421187E+03  0.17120000000E+03 0.  0.
        998    1    1    2    0    0  0.33808954028E+02  0.13717457080E+02  0.14535335851E+04  0.14540258241E+04  0.10000000000E+02 0. -1.
</event>
<event>
 5    1  0.1533416E-008  0.3709065E+03  0.7957747E-01  0.3491735E+00
         13   -1    0    0    0    0  0.00000000000E+00  0.00000000000E+00  0.14999999963E+04  0.15000000000E+04  0.10566000000E+00 0.  1.
        994   -1    0    0    0    0 -0.00000000000E+00 -0.00000000000E+00  0.11368683772E-12  0.17120000000E+03  0.17120000000E+03 0.  0.
         13    1    1    2    0    0 -0.96933231021E+01  0.11185570382E+02  0.89328088225E+01  0.17288254250E+02  0.10566000000E+00 0.  1.
        994    1    1    2    0    0 -0.73154583459E+01  0.81000059283E+01  0.92067093090E+01  0.17179443973E+03  0.17120000000E+03 0.  0.
        998    1    1    2    0    0  0.17008781448E+02 -0.19285576310E+02  0.14818604781E+04  0.14821173060E+04  0.10000000000E+02 0.  1.
</event>
<event>
 5    1  0.1533416E-008  0.3834333E+03  0.7957747E-01  0.3436344E+00
         13   -1    0    0    0    0  0.00000000000E+00  0.00000000000E+00  0.14999999963E+04  0.15000000000E+04  0.10566000000E+00 0.  1.
        994   -1    0    0    0    0 -0.00000000000E+00 -0.00000000000E+00  0.11368683772E-12  0.17120000000E+03  0.17120000000E+03 0.  0.
         13    1    1    2    0    0  0.17310437765E+02 -0.14377855921E+02  0.10084340128E+03  0.10332365045E+03  0.10566000000E+00 0.  1.
        994    1    1    2    0    0 -0.13909308450E+02  0.13516390422E+02  0.36543347265E+01  0.17233384994E+03  0.17120000000E+03 0.  0.
        998    1    1    2    0    0 -0.34011293153E+01  0.86146549926E+00  0.13955022603E+04  0.13955424996E+04  0.10000000000E+02 0.  1.
</event>
<event>
 5    1  0.1533416E-008  0.3898212E+03  0.7957747E-01  0.3409479E+00
         13   -1    0    0    0    0  0.00000000000E+00  0.00000000000E+00  0.14999999963E+04  0.15000000000E+04  0.10566000000E+00 0. -1.
        994   -1    0    0    0    0 -0.00000000000E+00 -0.00000000000E+00  0.11368683772E-12  0.17120000000E+03  0.17120000000E+03 0.  0.
         13    1    1    2    0    0  0.35709550229E+02  0.41993191273E+02  0.58284404213E+02  0.80222708938E+02  0.10566000000E+00 0. -1.
        994    1    1    2    0    0 -0.23488038378E+02 -0.62356603008E+02  0.38721680762E+02  0.18774675083E+03  0.17120000000E+03 0.  0.
        998    1    1    2    0    0 -0.12221511850E+02  0.20363411735E+02  0.14029939113E+04  0.14032305402E+04  0.10000000000E+02 0. -1.
</event>
<event>
 5    1  0.1533416E-008  0.3718506E+03  0.7957747E-01  0.3487429E+00
         13   -1    0    0    0    0  0.00000000000E+00  0.00000000000E+00  0.14999999963E+04  0.15000000000E+04  0.10566000000E+00 0. -1.
        994   -1    0    0    0    0 -0.00000000000E+00 -0.00000000000E+00  0.11368683772E-12  0.17120000000E+03  0.17120000000E+03 0.  0.
         13    1    1    2    0    0 -0.50561523950E+01  0.21827020902E+02  0.15936790177E+02  0.27495017070E+02  0.10566000000E+00 0. -1.
        994    1    1    2    0    0 -0.48280423660E+00 -0.17000831449E+02  0.12939170153E+02  0.17252861645E+03  0.17120000000E+03 0.  0.
        998    1    1    2    0    0  0.55389566316E+01 -0.48261894524E+01  0.14711240359E+04  0.14711763665E+04  0.10000000000E+02 0. -1.
</event>
<event>
 5    1  0.1533416E-008  0.3848661E+03  0.7957747E-01  0.3430240E+00
         13   -1    0    0    0    0  0.00000000000E+00  0.00000000000E+00  0.14999999963E+04  0.15000000000E+04  0.10566000000E+00 0.  1.
        994   -1    0    0    0    0 -0.00000000000E+00 -0.00000000000E+00  0.11368683772E-12  0.17120000000E+03  0.17120000000E+03 0.  0.
         13    1    1    2    0    0  0.12245558520E+02 -0.33908307293E+00  0.43588660138E+02  0.45277490406E+02  0.10566000000E+00 0.  1.
        994    1    1    2    0    0 -0.10517735151E+02 -0.47962089772E+01  0.21364200912E+01  0.17160311962E+03  0.17120000000E+03 0.  0.
        998    1    1    2    0    0 -0.17278233683E+01  0.51352920502E+01  0.14542749160E+04  0.14543193900E+04  0.10000000000E+02 0.  1.
</event>
<event>
 5    1  0.1533416E-008  0.3847139E+03  0.7957747E-01  0.3430886E+00
         13   -1    0    0    0    0  0.00000000000E+00  0.00000000000E+00  0.14999999963E+04  0.15000000000E+04  0.10566000000E+00 0.  1.
        994   -1    0    0    0    0 -0.00000000000E+00 -0.00000000000E+00  0.11368683772E-12  0.17120000000E+03  0.17120000000E+03 0.  0.
         13    1    1    2    0    0  0.19677124396E+02 -0.12287659238E+01  0.11384890495E+03  0.11554342652E+03  0.10566000000E+00 0.  1.
        994    1    1    2    0    0 -0.72165558397E+01  0.10419284856E+02  0.23012023769E+01  0.17168394132E+03  0.17120000000E+03 0.  0.
        998    1    1    2    0    0 -0.12460568556E+02 -0.91905189326E+01  0.13838498889E+04  0.13839726322E+04  0.10000000000E+02 0.  1.
</event>
<event>
 5    1  0.1533416E-008  0.3810756E+03  0.7957747E-01  0.3446489E+00
         13   -1    0    0    0    0  0.00000000000E+00  0.00000000000E+00  0.14999999963E+04  0.15000000000E+04  0.10566000000E+00 0.  1.
        994   -1    0    0    0    0 -0.00000000000E+00 -0.00000000000E+00  0.11368683772E-12  0.17120000000E+03  0.17120000000E+03 0.  0.
         13    1    1    2    0    0  0.29829134600E+02 -0.48523600811E+01  0.11594106200E+03  0.11981512296E+03  0.10566000000E+00 0.  1.
        994    1    1    2    0    0 -0.31272638963E+02  0.95218736515E+01  0.71591113406E+01  0.17444006679E+03  0.17120000000E+03 0.  0.
        998    1    1    2    0    0  0.14435043633E+01 -0.46695135703E+01  0.13768998229E+04  0.13769448103E+04  0.10000000000E+02 0.  1.
</event>
<event>
 5    1  0.1533416E-008  0.3818927E+03  0.7957747E-01  0.3442958E+00
         13   -1    0    0    0    0  0.00000000000E+00  0.00000000000E+00  0.14999999963E+04  0.15000000000E+04  0.10566000000E+00 0.  1.
        994   -1    0    0    0    0 -0.00000000000E+00 -0.00000000000E+00  0.11368683772E-12  0.17120000000E+03  0.17120000000E+03 0.  0.
         13    1    1    2    0    0 -0.22993661503E+02 -0.58543864348E+01  0.86103459065E+02  0.89312928162E+02  0.10566000000E+00 0.  1.
        994    1    1    2    0    0  0.15345840385E+02  0.11635579619E+02  0.44138520221E+01  0.17233630964E+03  0.17120000000E+03 0.  0.
        998    1    1    2    0    0  0.76478211187E+01 -0.57811931837E+01  0.14094826852E+04  0.14095507622E+04  0.10000000000E+02 0.  1.
</event>
<event>
 5    1  0.1533416E-008  0.3749061E+03  0.7957747E-01  0.3473643E+00
         13   -1    0    0    0    0  0.00000000000E+00  0.00000000000E+00  0.14999999963E+04  0.15000000000E+04  0.10566000000E+00 0.  1.
        994   -1    0    0    0    0 -0.00000000000E+00 -0.00000000000E+00  0.11368683772E-12  0.17120000000E+03  0.17120000000E+03 0.  0.
         13    1    1    2    0    0  0.28082238155E+02  0.18645126303E+02  0.35978417186E+02  0.49302236277E+02  0.10566000000E+00 0.  1.
        994    1    1    2    0    0 -0.18291554110E+02 -0.27435905283E+02  0.17434393965E+02  0.17521617489E+03  0.17120000000E+03 0.  0.
        998    1    1    2    0    0 -0.97906840452E+01  0.87907789804E+01  0.14465871851E+04  0.14466815888E+04  0.10000000000E+02 0.  1.
</event>
<event>
 5    1  0.1533416E-008  0.3819213E+03  0.7957747E-01  0.3442835E+00
         13   -1    0    0    0    0  0.00000000000E+00  0.00000000000E+00  0.14999999963E+04  0.15000000000E+04  0.10566000000E+00 0. -1.
        994   -1    0    0    0    0 -0.00000000000E+00 -0.00000000000E+00  0.11368683772E-12  0.17120000000E+03  0.17120000000E+03 0.  0.
         13    1    1    2    0    0  0.41512144200E+02  0.15918309674E+02  0.24977101429E+03  0.25369710570E+03  0.10566000000E+00 0. -1.
        994    1    1    2    0    0 -0.45167460503E+02 -0.20643902274E+02  0.11402602979E+02  0.17862174992E+03  0.17120000000E+03 0.  0.
        998    1    1    2    0    0  0.36553163026E+01  0.47255926000E+01  0.12388263790E+04  0.12388811444E+04  0.10000000000E+02 0. -1.
</event>
<event>
 5    1  0.1533416E-008  0.3788630E+03  0.7957747E-01  0.3456124E+00
         13   -1    0    0    0    0  0.00000000000E+00  0.00000000000E+00  0.14999999963E+04  0.15000000000E+04  0.10566000000E+00 0.  1.
        994   -1    0    0    0    0 -0.00000000000E+00 -0.00000000000E+00  0.11368683772E-12  0.17120000000E+03  0.17120000000E+03 0.  0.
         13    1    1    2    0    0 -0.10681193653E+02 -0.26327028087E+02  0.90672723391E+02  0.95019757087E+02  0.10566000000E+00 0.  1.
        994    1    1    2    0    0 -0.39040016940E+01  0.30125444966E+01  0.47897944400E+01  0.17133796656E+03  0.17120000000E+03 0.  0.
        998    1    1    2    0    0  0.14585195347E+02  0.23314483590E+02  0.14045374784E+04  0.14048422764E+04  0.10000000000E+02 0.  1.
</event>
<event>
 5    1  0.1533416E-008  0.3840562E+03  0.7957747E-01  0.3433685E+00
         13   -1    0    0    0    0  0.00000000000E+00  0.00000000000E+00  0.14999999963E+04  0.15000000000E+04  0.10566000000E+00 0.  1.
        994   -1    0    0    0    0 -0.00000000000E+00 -0.00000000000E+00  0.11368683772E-12  0.17120000000E+03  0.17120000000E+03 0.  0.
         13    1    1    2    0    0  0.18269978935E+02 -0.54197459050E+01  0.85842346961E+02  0.87932277758E+02  0.10566000000E+00 0.  1.
        994    1    1    2    0    0 -0.10186533269E+02  0.10134810775E+02  0.27808594090E+01  0.17182448320E+03  0.17120000000E+03 0.  0.
        998    1    1    2    0    0 -0.80834456656E+01 -0.47150648702E+01  0.14113767899E+04  0.14114432390E+04  0.10000000000E+02 0.  1.
</event>
<event>
 5    1  0.1533416E-008  0.3812403E+03  0.7957747E-01  0.3445775E+00
         13   -1    0    0    0    0  0.00000000000E+00  0.00000000000E+00  0.14999999963E+04  0.15000000000E+04  0.10566000000E+00 0. -1.
        994   -1    0    0    0    0 -0.00000000000E+00 -0.00000000000E+00  0.11368683772E-12  0.17120000000E+03  0.17120000000E+03 0.  0.
         13    1    1    2    0    0  0.74386746313E+01 -0.12182871156E+02  0.26990486842E+02  0.30532831082E+02  0.10566000000E+00 0. -1.
        994    1    1    2    0    0 -0.25616654997E+02  0.51843203417E+01  0.57858454888E+01  0.17328013792E+03  0.17120000000E+03 0.  0.
        998    1    1    2    0    0  0.18177980366E+02  0.69985508141E+01  0.14672236639E+04  0.14673870310E+04  0.10000000000E+02 0. -1.
</event>
<event>
 5    1  0.1533416E-008  0.3840963E+03  0.7957747E-01  0.3433514E+00
         13   -1    0    0    0    0  0.00000000000E+00  0.00000000000E+00  0.14999999963E+04  0.15000000000E+04  0.10566000000E+00 0.  1.
        994   -1    0    0    0    0 -0.00000000000E+00 -0.00000000000E+00  0.11368683772E-12  0.17120000000E+03  0.17120000000E+03 0.  0.
         13    1    1    2    0    0 -0.11417640349E+02 -0.17066981387E+02  0.96891578249E+02  0.99043593757E+02  0.10566000000E+00 0.  1.
        994    1    1    2    0    0  0.15487263376E+02  0.12527044482E+02  0.33892626126E+01  0.17238825155E+03  0.17120000000E+03 0.  0.
        998    1    1    2    0    0 -0.40696230271E+01  0.45399369049E+01  0.13997191554E+04  0.13997681547E+04  0.10000000000E+02 0.  1.
</event>
<event>
 5    1  0.1533416E-008  0.3790692E+03  0.7957747E-01  0.3455222E+00
         13   -1    0    0    0    0  0.00000000000E+00  0.00000000000E+00  0.14999999963E+04  0.15000000000E+04  0.10566000000E+00 0. -1.
        994   -1    0    0    0    0 -0.00000000000E+00 -0.00000000000E+00  0.11368683772E-12  0.17120000000E+03  0.17120000000E+03 0.  0.
         13    1    1    2    0    0  0.23407657963E+02  0.11873858492E+02  0.82013282926E+02  0.86110955791E+02  0.10566000000E+00 0. -1.
        994    1    1    2    0    0  0.12822955402E+02 -0.58806919479E+01  0.52713690848E+01  0.17186110105E+03  0.17120000000E+03 0.  0.
        998    1    1    2    0    0 -0.36230613365E+02 -0.59931665439E+01  0.14127153443E+04  0.14132279432E+04  0.10000000000E+02 0. -1.
</event>
<event>
 5    1  0.1533416E-008  0.3854884E+03  0.7957747E-01  0.3427604E+00
         13   -1    0    0    0    0  0.00000000000E+00  0.00000000000E+00  0.14999999963E+04  0.15000000000E+04  0.10566000000E+00 0.  1.
        994   -1    0    0    0    0 -0.00000000000E+00 -0.00000000000E+00  0.11368683772E-12  0.17120000000E+03  0.17120000000E+03 0.  0.
         13    1    1    2    0    0  0.11498622493E+02  0.67735192287E+00  0.47767836033E+02  0.49137098491E+02  0.10566000000E+00 0.  1.
        994    1    1    2    0    0 -0.84283495943E+01 -0.22092094656E+01  0.16371815694E+01  0.17142939668E+03  0.17120000000E+03 0.  0.
        998    1    1    2    0    0 -0.30702728991E+01  0.15318575427E+01  0.14505949787E+04  0.14506335048E+04  0.10000000000E+02 0.  1.
</event>
<event>
 5    1  0.1533416E-008  0.3860943E+03  0.7957747E-01  0.3425044E+00
         13   -1    0    0    0    0  0.00000000000E+00  0.00000000000E+00  0.14999999963E+04  0.15000000000E+04  0.10566000000E+00 0.  1.
        994   -1    0    0    0    0 -0.00000000000E+00 -0.00000000000E+00  0.11368683772E-12  0.17120000000E+03  0.17120000000E+03 0.  0.
         13    1    1    2    0    0  0.10508358459E+02 -0.53602981815E+00  0.51803005843E+02  0.52860907142E+02  0.10566000000E+00 0.  1.
        994    1    1    2    0    0 -0.62105787838E+01  0.51106826822E+01  0.12998251787E+01  0.17139375692E+03  0.17120000000E+03 0.  0.
        998    1    1    2    0    0 -0.42977796748E+01 -0.45746528641E+01  0.14468971653E+04  0.14469453359E+04  0.10000000000E+02 0.  1.
</event>
<event>
 5    1  0.1533416E-008  0.3858756E+03  0.7957747E-01  0.3425967E+00
         13   -1    0    0    0    0  0.00000000000E+00  0.00000000000E+00  0.14999999963E+04  0.15000000000E+04  0.10566000000E+00 0.  1.
        994   -1    0    0    0    0 -0.00000000000E+00 -0.00000000000E+00  0.11368683772E-12  0.17120000000E+03  0.17120000000E+03 0.  0.
         13    1    1    2    0    0 -0.46773106895E+01 -0.94239448756E+01  0.47151709516E+02  0.48311311787E+02  0.10566000000E+00 0.  1.
        994    1    1    2    0    0  0.25297879817E+00  0.61345465290E+01  0.13196570504E+01  0.17131514280E+03  0.17120000000E+03 0.  0.
        998    1    1    2    0    0  0.44243318913E+01  0.32893983465E+01  0.14515286297E+04  0.14515735454E+04  0.10000000000E+02 0.  1.
</event>
<event>
 5    1  0.1533416E-008  0.3810877E+03  0.7957747E-01  0.3446436E+00
         13   -1    0    0    0    0  0.00000000000E+00  0.00000000000E+00  0.14999999963E+04  0.15000000000E+04  0.10566000000E+00 0.  1.
        994   -1    0    0    0    0 -0.00000000000E+00 -0.00000000000E+00  0.11368683772E-12  0.17120000000E+03  0.17120000000E+03 0.  0.
         13    1    1    2    0    0  0.65992904654E+01 -0.90434511386E+01  0.15899899221E+02  0.19446146210E+02  0.10566000000E+00 0.  1.
        994    1    1    2    0    0 -0.17995392200E+01  0.10861479589E+02  0.39889275682E+01  0.17160000473E+03  0.17120000000E+03 0.  0.
        998    1    1    2    0    0 -0.47997512453E+01 -0.18180284506E+01  0.14801111695E+04  0.14801538491E+04  0.10000000000E+02 0.  1.
</event>
<event>
 5    1  0.1533416E-008  0.3851514E+03  0.7957747E-01  0.3429030E+00
         13   -1    0    0    0    0  0.00000000000E+00  0.00000000000E+00  0.14999999963E+04  0.15000000000E+04  0.10566000000E+00 0.  1.
        994   -1    0    0    0    0 -0.00000000000E+00 -0.00000000000E+00  0.11368683772E-12  0.17120000000E+03  0.17120000000E+03 0.  0.
         13    1    1    2    0    0  0.98495350936E+01 -0.48521265145E+01  0.38809096011E+02  0.40332537367E+02  0.10566000000E+00 0.  1.
        994    1    1    2    0    0 -0.10973370399E+02 -0.66198782459E+01  0.20950131056E+01  0.17169177827E+03  0.17120000000E+03 0.  0.
        998    1    1    2    0    0  0.11238353054E+01  0.11472004760E+02  0.14590958872E+04  0.14591756844E+04  0.10000000000E+02 0.  1.
</event>
<event>
 5    1  0.1533416E-008  0.3757197E+03  0.7957747E-01  0.3470010E+00
         13   -1    0    0    0    0  0.00000000000E+00  0.00000000000E+00  0.14999999963E+04  0.15000000000E+04  0.10566000000E+00 0. -1.
        994   -1    0    0    0    0 -0.00000000000E+00 -0.00000000000E+00  0.11368683772E-12  0.17120000000E+03  0.17120000000E+03 0.  0.
         13    1    1    2    0    0 -0.22998592321E+03  0.52226428065E+02  0.94150485063E+03  0.97059390045E+03  0.10566000000E+00 0. -1.
        994    1    1    2    0    0  0.23004468120E+03 -0.62749946789E+02  0.23296807504E+03  0.37475548716E+03  0.17120000000E+03 0.  0.
        998    1    1    2    0    0 -0.58757990663E-01  0.10523518724E+02  0.32552707060E+03  0.32585061239E+03  0.10000000000E+02 0.  1.
</event>
<event>
 5    1  0.1533416E-008  0.3843205E+03  0.7957747E-01  0.3432559E+00
         13   -1    0    0    0    0  0.00000000000E+00  0.00000000000E+00  0.14999999963E+04  0.15000000000E+04  0.10566000000E+00 0. -1.
        994   -1    0    0    0    0 -0.00000000000E+00 -0.00000000000E+00  0.11368683772E-12  0.17120000000E+03  0.17120000000E+03 0.  0.
         13    1    1    2    0    0 -0.36426609821E+01  0.19903719291E+02  0.10124806029E+03  0.10325021985E+03  0.10566000000E+00 0. -1.
        994    1    1    2    0    0  0.28606785520E+00 -0.16321466849E+02  0.28466514659E+01  0.17200004517E+03  0.17120000000E+03 0.  0.
        998    1    1    2    0    0  0.33565931269E+01 -0.35822524419E+01  0.13959052845E+04  0.13959497350E+04  0.10000000000E+02 0. -1.
</event>
<event>
 5    1  0.1533416E-008  0.3844596E+03  0.7957747E-01  0.3431967E+00
         13   -1    0    0    0    0  0.00000000000E+00  0.00000000000E+00  0.14999999963E+04  0.15000000000E+04  0.10566000000E+00 0.  1.
        994   -1    0    0    0    0 -0.00000000000E+00 -0.00000000000E+00  0.11368683772E-12  0.17120000000E+03  0.17120000000E+03 0.  0.
         13    1    1    2    0    0  0.44820685116E+01 -0.10544230932E+02  0.35450230682E+02  0.37255868847E+02  0.10566000000E+00 0.  1.
        994    1    1    2    0    0 -0.49956722483E+01 -0.25857327633E+01  0.20029451057E+01  0.17130409961E+03  0.17120000000E+03 0.  0.
        998    1    1    2    0    0  0.51360373666E+00  0.13129963695E+02  0.14625468205E+04  0.14626400315E+04  0.10000000000E+02 0.  1.
</event>
<event>
 5    1  0.1533416E-008  0.3849623E+03  0.7957747E-01  0.3429832E+00
         13   -1    0    0    0    0  0.00000000000E+00  0.00000000000E+00  0.14999999963E+04  0.15000000000E+04  0.10566000000E+00 0.  1.
        994   -1    0    0    0    0 -0.00000000000E+00 -0.00000000000E+00  0.11368683772E-12  0.17120000000E+03  0.17120000000E+03 0.  0.
         13    1    1    2    0    0 -0.52500729555E+01  0.16421595178E+02  0.88198842526E+02  0.89868120272E+02  0.10566000000E+00 0.  1.
        994    1    1    2    0    0  0.44863245795E+01 -0.13398417247E+02  0.23057550216E+01  0.17179755877E+03  0.17120000000E+03 0.  0.
        998    1    1    2    0    0  0.76374837603E+00 -0.30231779304E+01  0.14094953987E+04  0.14095343210E+04  0.10000000000E+02 0.  1.
</event>
<event>
 5    1  0.1533416E-008  0.3841040E+03  0.7957747E-01  0.3433481E+00
         13   -1    0    0    0    0  0.00000000000E+00  0.00000000000E+00  0.14999999963E+04  0.15000000000E+04  0.10566000000E+00 0.  1.
        994   -1    0    0    0    0 -0.00000000000E+00 -0.00000000000E+00  0.11368683772E-12  0.17120000000E+03  0.17120000000E+03 0.  0.
         13    1    1    2    0    0 -0.61115189918E+01 -0.11528332415E+02  0.40019581790E+02  0.42093125369E+02  0.10566000000E+00 0.  1.
        994    1    1    2    0    0  0.48431433205E+01  0.10563873658E+02  0.25212103500E+01  0.17161249362E+03  0.17120000000E+03 0.  0.
        998    1    1    2    0    0  0.12683756713E+01  0.96445875708E+00  0.14574592041E+04  0.14574943810E+04  0.10000000000E+02 0.  1.
</event>
<event>
 5    1  0.1533416E-008  0.3822195E+03  0.7957747E-01  0.3441551E+00
         13   -1    0    0    0    0  0.00000000000E+00  0.00000000000E+00  0.14999999963E+04  0.15000000000E+04  0.10566000000E+00 0. -1.
        994   -1    0    0    0    0 -0.00000000000E+00 -0.00000000000E+00  0.11368683772E-12  0.17120000000E+03  0.17120000000E+03 0.  0.
         13    1    1    2    0    0 -0.16635893177E+02  0.48233858887E+01  0.50695156858E+02  0.53572643075E+02  0.10566000000E+00 0. -1.
        994    1    1    2    0    0  0.14114823235E+01 -0.27674134711E+01  0.30489703636E+01  0.17125532716E+03  0.17120000000E+03 0.  0.
        998    1    1    2    0    0  0.15224410854E+02 -0.20559724176E+01  0.14462558691E+04  0.14463720298E+04  0.10000000000E+02 0. -1.
</event>
<event>
 5    1  0.1533416E-008  0.3857724E+03  0.7957747E-01  0.3426403E+00
         13   -1    0    0    0    0  0.00000000000E+00  0.00000000000E+00  0.14999999963E+04  0.15000000000E+04  0.10566000000E+00 0. -1.
        994   -1    0    0    0    0 -0.00000000000E+00 -0.00000000000E+00  0.11368683772E-12  0.17120000000E+03  0.17120000000E+03 0.  0.
         13    1    1    2    0    0  0.98557803248E+01  0.46510767802E+01  0.49731059163E+02  0.50911279011E+02  0.10566000000E+00 0. -1.
        994    1    1    2    0    0 -0.49082425395E+01  0.61417543988E+01  0.14499362395E+01  0.17138656396E+03  0.17120000000E+03 0.  0.
        998    1    1    2    0    0 -0.49475377853E+01 -0.10792831179E+02  0.14488190009E+04  0.14489021570E+04  0.10000000000E+02 0. -1.
</event>
<event>
 5    1  0.1533416E-008  0.3684414E+03  0.7957747E-01  0.3503085E+00
         13   -1    0    0    0    0  0.00000000000E+00  0.00000000000E+00  0.14999999963E+04  0.15000000000E+04  0.10566000000E+00 0.  1.
        994   -1    0    0    0    0 -0.00000000000E+00 -0.00000000000E+00  0.11368683772E-12  0.17120000000E+03  0.17120000000E+03 0.  0.
         13    1    1    2    0    0 -0.36648135809E+02  0.29710945698E+02  0.12211763483E+03  0.13091430041E+03  0.10566000000E+00 0.  1.
        994    1    1    2    0    0 -0.35049552449E+01  0.35744192197E+01  0.10204167253E+02  0.17157688135E+03  0.17120000000E+03 0.  0.
        998    1    1    2    0    0  0.40153091053E+02 -0.33285364918E+02  0.13676781942E+04  0.13687088182E+04  0.10000000000E+02 0.  1.
</event>
<event>
 5    1  0.1533416E-008  0.3782095E+03  0.7957747E-01  0.3458992E+00
         13   -1    0    0    0    0  0.00000000000E+00  0.00000000000E+00  0.14999999963E+04  0.15000000000E+04  0.10566000000E+00 0.  1.
        994   -1    0    0    0    0 -0.00000000000E+00 -0.00000000000E+00  0.11368683772E-12  0.17120000000E+03  0.17120000000E+03 0.  0.
         13    1    1    2    0    0  0.85173361262E+01  0.10773762315E+02  0.16686500213E+02  0.21611788971E+02  0.10566000000E+00 0.  1.
        994    1    1    2    0    0 -0.51308131564E+01 -0.37794312119E+01  0.51762800159E+01  0.17139674215E+03  0.17120000000E+03 0.  0.
        998    1    1    2    0    0 -0.33865229698E+01 -0.69943311030E+01  0.14781372160E+04  0.14781914689E+04  0.10000000000E+02 0.  1.
</event>
<event>
 5    1  0.1533416E-008  0.3824771E+03  0.7957747E-01  0.3440443E+00
         13   -1    0    0    0    0  0.00000000000E+00  0.00000000000E+00  0.14999999963E+04  0.15000000000E+04  0.10566000000E+00 0.  1.
        994   -1    0    0    0    0 -0.00000000000E+00 -0.00000000000E+00  0.11368683772E-12  0.17120000000E+03  0.17120000000E+03 0.  0.
         13    1    1    2    0    0 -0.42791841730E+01 -0.13727663826E+02  0.34538836725E+02  0.37412599184E+02  0.10566000000E+00 0.  1.
        994    1    1    2    0    0  0.87589569166E+00  0.12020546971E+02  0.33697095041E+01  0.17165679621E+03  0.17120000000E+03 0.  0.
        998    1    1    2    0    0  0.34032884814E+01  0.17071168558E+01  0.14620914500E+04  0.14621306046E+04  0.10000000000E+02 0.  1.
</event>
<event>
 5    1  0.1533416E-008  0.3841388E+03  0.7957747E-01  0.3433333E+00
         13   -1    0    0    0    0  0.00000000000E+00  0.00000000000E+00  0.14999999963E+04  0.15000000000E+04  0.10566000000E+00 0. -1.
        994   -1    0    0    0    0 -0.00000000000E+00 -0.00000000000E+00  0.11368683772E-12  0.17120000000E+03  0.17120000000E+03 0.  0.
         13    1    1    2    0    0 -0.38240267651E+02  0.12655630759E+02  0.23623912588E+03  0.23964853186E+03  0.10566000000E+00 0. -1.
        994    1    1    2    0    0  0.66496498832E+02 -0.34133143137E+02  0.20705721603E+02  0.18794952175E+03  0.17120000000E+03 0.  0.
        998    1    1    2    0    0 -0.28256231181E+02  0.21477512378E+02  0.12430551488E+04  0.12436019464E+04  0.10000000000E+02 0. -1.
</event>
<event>
 5    1  0.1533416E-008  0.3855843E+03  0.7957747E-01  0.3427198E+00
         13   -1    0    0    0    0  0.00000000000E+00  0.00000000000E+00  0.14999999963E+04  0.15000000000E+04  0.10566000000E+00 0. -1.
        994   -1    0    0    0    0 -0.00000000000E+00 -0.00000000000E+00  0.11368683772E-12  0.17120000000E+03  0.17120000000E+03 0.  0.
         13    1    1    2    0    0 -0.14850116411E+02  0.23184337871E+02  0.10947980588E+02  0.29629527889E+02  0.10566000000E+00 0. -1.
        994    1    1    2    0    0  0.16417283073E+02 -0.27645326472E+02  0.23262833990E+02  0.17573955361E+03  0.17120000000E+03 0.  0.
        998    1    1    2    0    0 -0.15671666620E+01  0.44609886014E+01  0.14657891817E+04  0.14658309185E+04  0.10000000000E+02 0. -1.
</event>
<event>
 5    1  0.1533416E-008  0.3379499E+03  0.7957747E-01  0.3657536E+00
         13   -1    0    0    0    0  0.00000000000E+00  0.00000000000E+00  0.14999999963E+04  0.15000000000E+04  0.10566000000E+00 0.  1.
        994   -1    0    0    0    0 -0.00000000000E+00 -0.00000000000E+00  0.11368683772E-12  0.17120000000E+03  0.17120000000E+03 0.  0.
         13    1    1    2    0    0  0.48821132626E+02  0.21688207908E+03  0.10232309075E+04  0.10471021156E+04  0.10566000000E+00 0.  1.
        994    1    1    2    0    0 -0.31744997021E+02 -0.14816289372E+03  0.11611387512E+03  0.25642125479E+03  0.17120000000E+03 0.  0.
        998    1    1    2    0    0 -0.17076135605E+02 -0.68719185357E+02  0.36065521362E+03  0.36767662960E+03  0.10000000000E+02 0. -1.
</event>
<event>
 5    1  0.1533416E-008  0.3841534E+03  0.7957747E-01  0.3433271E+00
         13   -1    0    0    0    0  0.00000000000E+00  0.00000000000E+00  0.14999999963E+04  0.15000000000E+04  0.10566000000E+00 0.  1.
        994   -1    0    0    0    0 -0.00000000000E+00 -0.00000000000E+00  0.11368683772E-12  0.17120000000E+03  0.17120000000E+03 0.  0.
         13    1    1    2    0    0 -0.73591426996E+01  0.12085045709E+02  0.47924023132E+02  0.49969275243E+02  0.10566000000E+00 0.  1.
        994    1    1    2    0    0  0.52633954448E+01 -0.10103540186E+02  0.24791450699E+01  0.17159653556E+03  0.17120000000E+03 0.  0.
        998    1    1    2    0    0  0.20957472548E+01 -0.19815055235E+01  0.14495968281E+04  0.14496341892E+04  0.10000000000E+02 0.  1.
</event>
<event>
 5    1  0.1533416E-008  0.3857102E+03  0.7957747E-01  0.3426666E+00
         13   -1    0    0    0    0  0.00000000000E+00  0.00000000000E+00  0.14999999963E+04  0.15000000000E+04  0.10566000000E+00 0. -1.
        994   -1    0    0    0    0 -0.00000000000E+00 -0.00000000000E+00  0.11368683772E-12  0.17120000000E+03  0.17120000000E+03 0.  0.
         13    1    1    2    0    0 -0.12055124943E+02  0.10324515271E+01  0.52342769162E+02  0.53723073638E+02  0.10566000000E+00 0. -1.
        994    1    1    2    0    0  0.23183051332E+02 -0.62512644634E+01  0.31718971158E+01  0.17290469371E+03  0.17120000000E+03 0.  0.
        998    1    1    2    0    0 -0.11127926389E+02  0.52188129363E+01  0.14444853300E+04  0.14445722326E+04  0.10000000000E+02 0. -1.
</event>
<event>
 5    1  0.1533416E-008  0.3788946E+03  0.7957747E-01  0.3455986E+00
         13   -1    0    0    0    0  0.00000000000E+00  0.00000000000E+00  0.14999999963E+04  0.15000000000E+04  0.10566000000E+00 0. -1.
        994   -1    0    0    0    0 -0.00000000000E+00 -0.00000000000E+00  0.11368683772E-12  0.17120000000E+03  0.17120000000E+03 0.  0.
         13    1    1    2    0    0  0.47449671100E+02  0.53244971095E+02  0.38236456228E+03  0.38895908254E+03  0.10566000000E+00 0. -1.
        994    1    1    2    0    0 -0.52349150933E+02 -0.55472003208E+02  0.24465627148E+02  0.18901212568E+03  0.17120000000E+03 0.  0.
        998    1    1    2    0    0  0.48994798330E+01  0.22270321128E+01  0.10931698068E+04  0.10932287918E+04  0.10000000000E+02 0. -1.
</event>
<event>
 5    1  0.1533416E-008  0.3812802E+03  0.7957747E-01  0.3445603E+00
         13   -1    0    0    0    0  0.00000000000E+00  0.00000000000E+00  0.14999999963E+04  0.15000000000E+04  0.10566000000E+00 0. -1.
        994   -1    0    0    0    0 -0.00000000000E+00 -0.00000000000E+00  0.11368683772E-12  0.17120000000E+03  0.17120000000E+03 0.  0.
         13    1    1    2    0    0  0.11381479707E+02  0.40883649491E+01  0.19176853403E+02  0.22671913875E+02  0.10566000000E+00 0. -1.
        994    1    1    2    0    0 -0.14133980384E+02 -0.58171261911E+01  0.42663502378E+01  0.17193385386E+03  0.17120000000E+03 0.  0.
        998    1    1    2    0    0  0.27525006773E+01  0.17287612420E+01  0.14765567926E+04  0.14765942323E+04  0.10000000000E+02 0. -1.
</event>
<event>
 5    1  0.1533416E-008  0.3853300E+03  0.7957747E-01  0.3428274E+00
         13   -1    0    0    0    0  0.00000000000E+00  0.00000000000E+00  0.14999999963E+04  0.15000000000E+04  0.10566000000E+00 0.  1.
        994   -1    0    0    0    0 -0.00000000000E+00 -0.00000000000E+00  0.11368683772E-12  0.17120000000E+03  0.17120000000E+03 0.  0.
         13    1    1    2    0    0 -0.97941067250E+01 -0.32266179392E+01  0.35165224227E+02  0.36646142346E+02  0.10566000000E+00 0.  1.
        994    1    1    2    0    0  0.12653343460E+02  0.34020027727E+01  0.20305782806E+01  0.17171267854E+03  0.17120000000E+03 0.  0.
        998    1    1    2    0    0 -0.28592367349E+01 -0.17538483351E+00  0.14628041938E+04  0.14628411791E+04  0.10000000000E+02 0.  1.
</event>
<event>
 5    1  0.1533416E-008  0.3782881E+03  0.7957747E-01  0.3458646E+00
         13   -1    0    0    0    0  0.00000000000E+00  0.00000000000E+00  0.14999999963E+04  0.15000000000E+04  0.10566000000E+00 0. -1.
        994   -1    0    0    0    0 -0.00000000000E+00 -0.00000000000E+00  0.11368683772E-12  0.17120000000E+03  0.17120000000E+03 0.  0.
         13    1    1    2    0    0 -0.69432742828E+01 -0.14697735838E+02  0.24430275226E+02  0.29344198885E+02  0.10566000000E+00 0. -1.
        994    1    1    2    0    0  0.17056957904E+01  0.10248389335E+02  0.53627605294E+01  0.17159877063E+03  0.17120000000E+03 0.  0.
        998    1    1    2    0    0  0.52375784925E+01  0.44493465033E+01  0.14702069605E+04  0.14702570305E+04  0.10000000000E+02 0. -1.
</event>
<event>
 5    1  0.1533416E-008  0.3842494E+03  0.7957747E-01  0.3432862E+00
         13   -1    0    0    0    0  0.00000000000E+00  0.00000000000E+00  0.14999999963E+04  0.15000000000E+04  0.10566000000E+00 0. -1.
        994   -1    0    0    0    0 -0.00000000000E+00 -0.00000000000E+00  0.11368683772E-12  0.17120000000E+03  0.17120000000E+03 0.  0.
         13    1    1    2    0    0 -0.12956727286E+02  0.96216960232E+01  0.65719206576E+02  0.67671848603E+02  0.10566000000E+00 0. -1.
        994    1    1    2    0    0  0.60672263265E+01 -0.48737547668E+01  0.22029440726E+01  0.17139094983E+03  0.17120000000E+03 0.  0.
        998    1    1    2    0    0  0.68895009597E+01 -0.47479412563E+01  0.14320778456E+04  0.14321372016E+04  0.10000000000E+02 0. -1.
</event>
<event>
 5    1  0.1533416E-008  0.3786831E+03  0.7957747E-01  0.3456913E+00
         13   -1    0    0    0    0  0.00000000000E+00  0.00000000000E+00  0.14999999963E+04  0.15000000000E+04  0.10566000000E+00 0.  1.
        994   -1    0    0    0    0 -0.00000000000E+00 -0.00000000000E+00  0.11368683772E-12  0.17120000000E+03  0.17120000000E+03 0.  0.
         13    1    1    2    0    0  0.56082741081E+01 -0.26530169716E+02  0.68891267761E+02  0.74035941146E+02  0.10566000000E+00 0.  1.
        994    1    1    2    0    0  0.13983979664E+02  0.41466797050E+02  0.11256277604E+02  0.17706267458E+03  0.17120000000E+03 0.  0.
        998    1    1    2    0    0 -0.19592253772E+02 -0.14936627334E+02  0.14198524509E+04  0.14201013843E+04  0.10000000000E+02 0.  1.
</event>
<event>
 5    1  0.1533416E-008  0.3791595E+03  0.7957747E-01  0.3454827E+00
         13   -1    0    0    0    0  0.00000000000E+00  0.00000000000E+00  0.14999999963E+04  0.15000000000E+04  0.10566000000E+00 0. -1.
        994   -1    0    0    0    0 -0.00000000000E+00 -0.00000000000E+00  0.11368683772E-12  0.17120000000E+03  0.17120000000E+03 0.  0.
         13    1    1    2    0    0 -0.22174178924E+02  0.59116322988E+01  0.58244244037E+02  0.62602274199E+02  0.10566000000E+00 0. -1.
        994    1    1    2    0    0  0.52624311610E+01  0.58619427536E+00  0.46520358956E+01  0.17134502690E+03  0.17120000000E+03 0.  0.
        998    1    1    2    0    0  0.16911747763E+02 -0.64978265741E+01  0.14371037163E+04  0.14372526989E+04  0.10000000000E+02 0. -1.
</event>
<event>
 5    1  0.1533416E-008  0.3813331E+03  0.7957747E-01  0.3445374E+00
         13   -1    0    0    0    0  0.00000000000E+00  0.00000000000E+00  0.14999999963E+04  0.15000000000E+04  0.10566000000E+00 0.  1.
        994   -1    0    0    0    0 -0.00000000000E+00 -0.00000000000E+00  0.11368683772E-12  0.17120000000E+03  0.17120000000E+03 0.  0.
         13    1    1    2    0    0 -0.19941833820E+02 -0.88008503134E+01  0.73664764774E+02  0.76822135062E+02  0.10566000000E+00 0.  1.
        994    1    1    2    0    0 -0.51628850304E+01  0.87254519663E+00  0.35529554222E+01  0.17131689995E+03  0.17120000000E+03 0.  0.
        998    1    1    2    0    0  0.25104718850E+02  0.79283051167E+01  0.14227822761E+04  0.14230609650E+04  0.10000000000E+02 0.  1.
</event>
<event>
 5    1  0.1533416E-008  0.3714918E+03  0.7957747E-01  0.3489063E+00
         13   -1    0    0    0    0  0.00000000000E+00  0.00000000000E+00  0.14999999963E+04  0.15000000000E+04  0.10566000000E+00 0. -1.
        994   -1    0    0    0    0 -0.00000000000E+00 -0.00000000000E+00  0.11368683772E-12  0.17120000000E+03  0.17120000000E+03 0.  0.
         13    1    1    2    0    0 -0.39300187499E+02  0.89618445641E+01  0.92859279237E+02  0.10123080707E+03  0.10566000000E+00 0. -1.
        994    1    1    2    0    0  0.24894217502E+02 -0.16727422314E+01  0.10635817534E+02  0.17333516881E+03  0.17120000000E+03 0.  0.
        998    1    1    2    0    0  0.14405969996E+02 -0.72891023328E+01  0.13965048995E+04  0.13966340241E+04  0.10000000000E+02 0. -1.
</event>
<event>
 5    1  0.1568660E-008  0.3859351E+03  0.7957747E-01  0.3425716E+00
         13   -1    0    0    0    0  0.00000000000E+00  0.00000000000E+00  0.14999999963E+04  0.15000000000E+04  0.10566000000E+00 0. -1.
        994   -1    0    0    0    0 -0.00000000000E+00 -0.00000000000E+00  0.11368683772E-12  0.17120000000E+03  0.17120000000E+03 0.  0.
         13    1    1    2    0    0 -0.85392450025E+01  0.83140093680E+01  0.63740312835E+02  0.64845046853E+02  0.10566000000E+00 0. -1.
        994    1    1    2    0    0 -0.72256060067E-01 -0.46907565810E+01  0.12387288473E+01  0.17126874457E+03  0.17120000000E+03 0.  0.
        998    1    1    2    0    0  0.86115010626E+01 -0.36232527869E+01  0.14350209546E+04  0.14350862086E+04  0.10000000000E+02 0. -1.
</event>
<event>
 5    1  0.1533416E-008  0.3812709E+03  0.7957747E-01  0.3445643E+00
         13   -1    0    0    0    0  0.00000000000E+00  0.00000000000E+00  0.14999999963E+04  0.15000000000E+04  0.10566000000E+00 0. -1.
        994   -1    0    0    0    0 -0.00000000000E+00 -0.00000000000E+00  0.11368683772E-12  0.17120000000E+03  0.17120000000E+03 0.  0.
         13    1    1    2    0    0 -0.39593713002E+01  0.36661585510E+02  0.17003005096E+03  0.17398269416E+03  0.10566000000E+00 0. -1.
        994    1    1    2    0    0  0.55993222169E+01 -0.39203176956E+02  0.87311923752E+01  0.17593724794E+03  0.17120000000E+03 0.  0.
        998    1    1    2    0    0 -0.16399509167E+01  0.25415914460E+01  0.13212387529E+04  0.13212800579E+04  0.10000000000E+02 0. -1.
</event>
<event>
 5    1  0.1533416E-008  0.3843159E+03  0.7957747E-01  0.3432579E+00
         13   -1    0    0    0    0  0.00000000000E+00  0.00000000000E+00  0.14999999963E+04  0.15000000000E+04  0.10566000000E+00 0.  1.
        994   -1    0    0    0    0 -0.00000000000E+00 -0.00000000000E+00  0.11368683772E-12  0.17120000000E+03  0.17120000000E+03 0.  0.
         13    1    1    2    0    0 -0.12378156797E+02  0.32935148365E+00  0.40108048925E+02  0.41976112143E+02  0.10566000000E+00 0.  1.
        994    1    1    2    0    0 -0.36112381998E+00  0.33333450872E+01  0.20072053515E+01  0.17124459254E+03  0.17120000000E+03 0.  0.
        998    1    1    2    0    0  0.12739280617E+02 -0.36626965708E+01  0.14578847420E+04  0.14579792953E+04  0.10000000000E+02 0.  1.
</event>
<event>
 5    1  0.1533416E-008  0.3844579E+03  0.7957747E-01  0.3431975E+00
         13   -1    0    0    0    0  0.00000000000E+00  0.00000000000E+00  0.14999999963E+04  0.15000000000E+04  0.10566000000E+00 0.  1.
        994   -1    0    0    0    0 -0.00000000000E+00 -0.00000000000E+00  0.11368683772E-12  0.17120000000E+03  0.17120000000E+03 0.  0.
         13    1    1    2    0    0 -0.12225424714E+02 -0.91129632295E+00  0.43066070447E+02  0.44777104174E+02  0.10566000000E+00 0.  1.
        994    1    1    2    0    0 -0.10586730318E+02 -0.35051623810E+01  0.23093398490E+01  0.17157837297E+03  0.17120000000E+03 0.  0.
        998    1    1    2    0    0  0.22812155032E+02  0.44164587040E+01  0.14546245860E+04  0.14548445229E+04  0.10000000000E+02 0.  1.
</event>
<event>
 5    1  0.1533416E-008  0.3848679E+03  0.7957747E-01  0.3430233E+00
         13   -1    0    0    0    0  0.00000000000E+00  0.00000000000E+00  0.14999999963E+04  0.15000000000E+04  0.10566000000E+00 0.  1.
        994   -1    0    0    0    0 -0.00000000000E+00 -0.00000000000E+00  0.11368683772E-12  0.17120000000E+03  0.17120000000E+03 0.  0.
         13    1    1    2    0    0  0.96194160354E+01  0.47822850403E+01  0.33348940740E+02  0.35036644069E+02  0.10566000000E+00 0.  1.
        994    1    1    2    0    0 -0.10441857511E+02 -0.17714158660E+01  0.20648798397E+01  0.17153971561E+03  0.17120000000E+03 0.  0.
        998    1    1    2    0    0  0.82244147519E+00 -0.30108691742E+01  0.14645861757E+04  0.14646236403E+04  0.10000000000E+02 0.  1.
</event>
<event>
 5    1  0.1533416E-008  0.3806066E+03  0.7957747E-01  0.3448521E+00
         13   -1    0    0    0    0  0.00000000000E+00  0.00000000000E+00  0.14999999963E+04  0.15000000000E+04  0.10566000000E+00 0.  1.
        994   -1    0    0    0    0 -0.00000000000E+00 -0.00000000000E+00  0.11368683772E-12  0.17120000000E+03  0.17120000000E+03 0.  0.
         13    1    1    2    0    0  0.23795102896E+02  0.89106002410E+01  0.88601564694E+02  0.92172957796E+02  0.10566000000E+00 0.  1.
        994    1    1    2    0    0 -0.23399814327E+01 -0.19476468735E+01  0.38581678998E+01  0.17127052958E+03  0.17120000000E+03 0.  0.
        998    1    1    2    0    0 -0.21455121463E+02 -0.69629533676E+01  0.14075402637E+04  0.14077565126E+04  0.10000000000E+02 0.  1.
</event>
<event>
 5    1  0.1533416E-008  0.4369030E+03  0.7957747E-01  0.3235542E+00
         13   -1    0    0    0    0  0.00000000000E+00  0.00000000000E+00  0.14999999963E+04  0.15000000000E+04  0.10566000000E+00 0. -1.
        994   -1    0    0    0    0 -0.00000000000E+00 -0.00000000000E+00  0.11368683772E-12  0.17120000000E+03  0.17120000000E+03 0.  0.
         13    1    1    2    0    0  0.45022913752E+02 -0.27522459111E+02  0.72344264974E+01  0.53262525372E+02  0.10566000000E+00 0. -1.
        994    1    1    2    0    0 -0.74187748080E+02 -0.19231427940E+02  0.79764718145E+02  0.20382718181E+03  0.17120000000E+03 0.  0.
        998    1    1    2    0    0  0.29164834328E+02  0.46753887051E+02  0.14130008516E+04  0.14141102928E+04  0.10000000000E+02 0. -1.
</event>
<event>
 5    1  0.1603083E-008  0.3850610E+03  0.7957747E-01  0.3429414E+00
         13   -1    0    0    0    0  0.00000000000E+00  0.00000000000E+00  0.14999999963E+04  0.15000000000E+04  0.10566000000E+00 0. -1.
        994   -1    0    0    0    0 -0.00000000000E+00 -0.00000000000E+00  0.11368683772E-12  0.17120000000E+03  0.17120000000E+03 0.  0.
         13    1    1    2    0    0 -0.66206220617E+01 -0.83078508924E+01  0.35699373943E+02  0.37246603696E+02  0.10566000000E+00 0. -1.
        994    1    1    2    0    0  0.17907742627E+01  0.34452177406E+01  0.16494364723E+01  0.17125196944E+03  0.17120000000E+03 0.  0.
        998    1    1    2    0    0  0.48298477990E+01  0.48626331518E+01  0.14626511859E+04  0.14627014269E+04  0.10000000000E+02 0. -1.
</event>
<event>
 5    1  0.1533416E-008  0.3835008E+03  0.7957747E-01  0.3436056E+00
         13   -1    0    0    0    0  0.00000000000E+00  0.00000000000E+00  0.14999999963E+04  0.15000000000E+04  0.10566000000E+00 0.  1.
        994   -1    0    0    0    0 -0.00000000000E+00 -0.00000000000E+00  0.11368683772E-12  0.17120000000E+03  0.17120000000E+03 0.  0.
         13    1    1    2    0    0 -0.25806860453E+02 -0.48206335211E+01  0.12652407548E+03  0.12921913711E+03  0.10566000000E+00 0.  1.
        994    1    1    2    0    0  0.32107759177E+02  0.14256470622E+02  0.64655339673E+01  0.17488681564E+03  0.17120000000E+03 0.  0.
        998    1    1    2    0    0 -0.63008987239E+01 -0.94358371005E+01  0.13670103868E+04  0.13670940473E+04  0.10000000000E+02 0.  1.
</event>
<event>
 5    1  0.1533416E-008  0.3813908E+03  0.7957747E-01  0.3445125E+00
         13   -1    0    0    0    0  0.00000000000E+00  0.00000000000E+00  0.14999999963E+04  0.15000000000E+04  0.10566000000E+00 0. -1.
        994   -1    0    0    0    0 -0.00000000000E+00 -0.00000000000E+00  0.11368683772E-12  0.17120000000E+03  0.17120000000E+03 0.  0.
         13    1    1    2    0    0 -0.71021333571E-01 -0.14292474840E+02  0.28224866176E+02  0.31637542821E+02  0.10566000000E+00 0. -1.
        994    1    1    2    0    0 -0.21627112251E+02  0.12200025499E+02  0.54871653960E+01  0.17307836835E+03  0.17120000000E+03 0.  0.
        998    1    1    2    0    0  0.21698133584E+02  0.20924493412E+01  0.14662879647E+04  0.14664840888E+04  0.10000000000E+02 0. -1.
</event>
<event>
 5    1  0.1533416E-008  0.3857669E+03  0.7957747E-01  0.3426426E+00
         13   -1    0    0    0    0  0.00000000000E+00  0.00000000000E+00  0.14999999963E+04  0.15000000000E+04  0.10566000000E+00 0.  1.
        994   -1    0    0    0    0 -0.00000000000E+00 -0.00000000000E+00  0.11368683772E-12  0.17120000000E+03  0.17120000000E+03 0.  0.
         13    1    1    2    0    0  0.81236287711E+01 -0.11809160907E+02  0.86529957855E+02  0.87709146593E+02  0.10566000000E+00 0.  1.
        994    1    1    2    0    0 -0.91509637533E+01 -0.10858184790E+01  0.15284968914E+01  0.17145464544E+03  0.17120000000E+03 0.  0.
        998    1    1    2    0    0  0.10273349822E+01  0.12894979386E+02  0.14119415415E+04  0.14120362080E+04  0.10000000000E+02 0.  1.
</event>
<event>
 5    1  0.1533416E-008  0.3786576E+03  0.7957747E-01  0.3457024E+00
         13   -1    0    0    0    0  0.00000000000E+00  0.00000000000E+00  0.14999999963E+04  0.15000000000E+04  0.10566000000E+00 0. -1.
        994   -1    0    0    0    0 -0.00000000000E+00 -0.00000000000E+00  0.11368683772E-12  0.17120000000E+03  0.17120000000E+03 0.  0.
         13    1    1    2    0    0  0.22491148755E+02  0.32272542735E+02  0.19244013348E+03  0.19641941077E+03  0.10566000000E+00 0. -1.
        994    1    1    2    0    0 -0.12103935884E+02  0.13276860862E+02  0.58968876204E+01  0.17224109144E+03  0.17120000000E+03 0.  0.
        998    1    1    2    0    0 -0.10387212872E+02 -0.45549403597E+02  0.13016629752E+04  0.13025394978E+04  0.10000000000E+02 0. -1.
</event>
<event>
 5    1  0.1533416E-008  0.3715539E+03  0.7957747E-01  0.3488780E+00
         13   -1    0    0    0    0  0.00000000000E+00  0.00000000000E+00  0.14999999963E+04  0.15000000000E+04  0.10566000000E+00 0. -1.
        994   -1    0    0    0    0 -0.00000000000E+00 -0.00000000000E+00  0.11368683772E-12  0.17120000000E+03  0.17120000000E+03 0.  0.
         13    1    1    2    0    0 -0.63347968472E+02  0.74973442824E+01  0.30292194324E+03  0.30956564755E+03  0.10566000000E+00 0. -1.
        994    1    1    2    0    0  0.46791995632E+01  0.13893462661E+02  0.91986034701E+01  0.17207259375E+03  0.17120000000E+03 0.  0.
        998    1    1    2    0    0  0.58668768909E+02 -0.21390806943E+02  0.11878794496E+04  0.11895617587E+04  0.10000000000E+02 0. -1.
</event>
<event>
 5    1  0.1533416E-008  0.3742446E+03  0.7957747E-01  0.3476608E+00
         13   -1    0    0    0    0  0.00000000000E+00  0.00000000000E+00  0.14999999963E+04  0.15000000000E+04  0.10566000000E+00 0.  1.
        994   -1    0    0    0    0 -0.00000000000E+00 -0.00000000000E+00  0.11368683772E-12  0.17120000000E+03  0.17120000000E+03 0.  0.
         13    1    1    2    0    0 -0.29836405600E+02 -0.10087868858E+03  0.62168930644E+03  0.63052702227E+03  0.10566000000E+00 0.  1.
        994    1    1    2    0    0 -0.17218860685E+02  0.29613137076E+02  0.17376659179E+02  0.17545602109E+03  0.17120000000E+03 0.  0.
        998    1    1    2    0    0  0.47055266285E+02  0.71265551499E+02  0.86093403066E+03  0.86521695665E+03  0.10000000000E+02 0. -1.
</event>
<event>
 5    1  0.1533416E-008  0.3839227E+03  0.7957747E-01  0.3434254E+00
         13   -1    0    0    0    0  0.00000000000E+00  0.00000000000E+00  0.14999999963E+04  0.15000000000E+04  0.10566000000E+00 0. -1.
        994   -1    0    0    0    0 -0.00000000000E+00 -0.00000000000E+00  0.11368683772E-12  0.17120000000E+03  0.17120000000E+03 0.  0.
         13    1    1    2    0    0  0.36306358302E+00  0.13944770027E+02  0.45218620484E+02  0.47321488024E+02  0.10566000000E+00 0. -1.
        994    1    1    2    0    0 -0.13621861930E+02 -0.52040268329E+01  0.28679768770E+01  0.17184383116E+03  0.17120000000E+03 0.  0.
        998    1    1    2    0    0  0.13258798347E+02 -0.87407431941E+01  0.14519133989E+04  0.14520346808E+04  0.10000000000E+02 0. -1.
</event>
<event>
 5    1  0.1533416E-008  0.3847324E+03  0.7957747E-01  0.3430808E+00
         13   -1    0    0    0    0  0.00000000000E+00  0.00000000000E+00  0.14999999963E+04  0.15000000000E+04  0.10566000000E+00 0. -1.
        994   -1    0    0    0    0 -0.00000000000E+00 -0.00000000000E+00  0.11368683772E-12  0.17120000000E+03  0.17120000000E+03 0.  0.
         13    1    1    2    0    0  0.23944529336E+01 -0.11048114703E+02  0.37463912016E+02  0.39132468756E+02  0.10566000000E+00 0. -1.
        994    1    1    2    0    0  0.20341169561E+01 -0.54055583551E+00  0.17776255914E+01  0.17122216499E+03  0.17120000000E+03 0.  0.
        998    1    1    2    0    0 -0.44285698897E+01  0.11588670538E+02  0.14607584587E+04  0.14608453663E+04  0.10000000000E+02 0. -1.
</event>
<event>
 5    1  0.1533416E-008  0.3823322E+03  0.7957747E-01  0.3441066E+00
         13   -1    0    0    0    0  0.00000000000E+00  0.00000000000E+00  0.14999999963E+04  0.15000000000E+04  0.10566000000E+00 0. -1.
        994   -1    0    0    0    0 -0.00000000000E+00 -0.00000000000E+00  0.11368683772E-12  0.17120000000E+03  0.17120000000E+03 0.  0.
         13    1    1    2    0    0 -0.20501303286E+02  0.20958078771E+02  0.15787695284E+03  0.16057611249E+03  0.10566000000E+00 0. -1.
        994    1    1    2    0    0  0.13185694580E+02  0.46430160958E+01  0.36089957416E+01  0.17180769770E+03  0.17120000000E+03 0.  0.
        998    1    1    2    0    0  0.73156087063E+01 -0.25601094866E+02  0.13385140477E+04  0.13388161898E+04  0.10000000000E+02 0. -1.
</event>
<event>
 5    1  0.1533416E-008  0.3742671E+03  0.7957747E-01  0.3476507E+00
         13   -1    0    0    0    0  0.00000000000E+00  0.00000000000E+00  0.14999999963E+04  0.15000000000E+04  0.10566000000E+00 0.  1.
        994   -1    0    0    0    0 -0.00000000000E+00 -0.00000000000E+00  0.11368683772E-12  0.17120000000E+03  0.17120000000E+03 0.  0.
         13    1    1    2    0    0 -0.24081570827E+02  0.36124992401E+01  0.17686452146E+02  0.30096411045E+02  0.10566000000E+00 0.  1.
        994    1    1    2    0    0 -0.75005799409E+01 -0.21527248473E+02  0.15059631847E+02  0.17336641439E+03  0.17120000000E+03 0.  0.
        998    1    1    2    0    0  0.31582150768E+02  0.17914749233E+02  0.14672539123E+04  0.14677371746E+04  0.10000000000E+02 0.  1.
</event>
<event>
 5    1  0.1533416E-008  0.3775535E+03  0.7957747E-01  0.3461881E+00
         13   -1    0    0    0    0  0.00000000000E+00  0.00000000000E+00  0.14999999963E+04  0.15000000000E+04  0.10566000000E+00 0.  1.
        994   -1    0    0    0    0 -0.00000000000E+00 -0.00000000000E+00  0.11368683772E-12  0.17120000000E+03  0.17120000000E+03 0.  0.
         13    1    1    2    0    0  0.15233973221E+02  0.78051401789E+01  0.24751047761E+02  0.30093515624E+02  0.10566000000E+00 0.  1.
        994    1    1    2    0    0 -0.13723715267E+02 -0.82167287413E+01  0.62359945825E+01  0.17205866041E+03  0.17120000000E+03 0.  0.
        998    1    1    2    0    0 -0.15102579543E+01  0.41158856246E+00  0.14690129539E+04  0.14690478240E+04  0.10000000000E+02 0.  1.
</event>
<event>
 5    1  0.1533416E-008  0.3769774E+03  0.7957747E-01  0.3464426E+00
         13   -1    0    0    0    0  0.00000000000E+00  0.00000000000E+00  0.14999999963E+04  0.15000000000E+04  0.10566000000E+00 0.  1.
        994   -1    0    0    0    0 -0.00000000000E+00 -0.00000000000E+00  0.11368683772E-12  0.17120000000E+03  0.17120000000E+03 0.  0.
         13    1    1    2    0    0 -0.22608063557E+02  0.30330595661E+02  0.12530238847E+03  0.13088838486E+03  0.10566000000E+00 0.  1.
        994    1    1    2    0    0  0.17503751391E+02 -0.13196160062E+02  0.72910402116E+01  0.17275161134E+03  0.17120000000E+03 0.  0.
        998    1    1    2    0    0  0.51043121653E+01 -0.17134435599E+02  0.13674065676E+04  0.13675600038E+04  0.10000000000E+02 0.  1.
</event>
<event>
 5    1  0.1533416E-008  0.3809957E+03  0.7957747E-01  0.3446834E+00
         13   -1    0    0    0    0  0.00000000000E+00  0.00000000000E+00  0.14999999963E+04  0.15000000000E+04  0.10566000000E+00 0. -1.
        994   -1    0    0    0    0 -0.00000000000E+00 -0.00000000000E+00  0.11368683772E-12  0.17120000000E+03  0.17120000000E+03 0.  0.
         13    1    1    2    0    0  0.38806215242E+02  0.21882079041E+02  0.26448283946E+03  0.26820874568E+03  0.10566000000E+00 0. -1.
        994    1    1    2    0    0 -0.38902312301E+02  0.81332944730E+01  0.89122772793E+01  0.17597843353E+03  0.17120000000E+03 0.  0.
        998    1    1    2    0    0  0.96097059007E-01 -0.30015373514E+02  0.12266048795E+04  0.12270128208E+04  0.10000000000E+02 0. -1.
</event>
<event>
 5    1  0.1533416E-008  0.3848524E+03  0.7957747E-01  0.3430299E+00
         13   -1    0    0    0    0  0.00000000000E+00  0.00000000000E+00  0.14999999963E+04  0.15000000000E+04  0.10566000000E+00 0. -1.
        994   -1    0    0    0    0 -0.00000000000E+00 -0.00000000000E+00  0.11368683772E-12  0.17120000000E+03  0.17120000000E+03 0.  0.
         13    1    1    2    0    0 -0.14732301044E+02 -0.26905789011E+01  0.63990514029E+02  0.65719684712E+02  0.10566000000E+00 0. -1.
        994    1    1    2    0    0  0.14530500448E+02  0.22059729376E+00  0.23985961394E+01  0.17183241071E+03  0.17120000000E+03 0.  0.
        998    1    1    2    0    0  0.20180059573E+00  0.24699816073E+01  0.14336108861E+04  0.14336479046E+04  0.10000000000E+02 0. -1.
</event>
<event>
 5    1  0.1533416E-008  0.3838875E+03  0.7957747E-01  0.3434404E+00
         13   -1    0    0    0    0  0.00000000000E+00  0.00000000000E+00  0.14999999963E+04  0.15000000000E+04  0.10566000000E+00 0.  1.
        994   -1    0    0    0    0 -0.00000000000E+00 -0.00000000000E+00  0.11368683772E-12  0.17120000000E+03  0.17120000000E+03 0.  0.
         13    1    1    2    0    0 -0.13960437589E+02  0.13243804067E+02  0.82855075165E+02  0.85060371552E+02  0.10566000000E+00 0.  1.
        994    1    1    2    0    0  0.11416150667E+02 -0.99120549224E+01  0.29382529705E+01  0.17189139205E+03  0.17120000000E+03 0.  0.
        998    1    1    2    0    0  0.25442869220E+01 -0.33317491447E+01  0.14142066681E+04  0.14142482364E+04  0.10000000000E+02 0.  1.
</event>
<event>
 5    1  0.1533416E-008  0.3691761E+03  0.7957747E-01  0.3499686E+00
         13   -1    0    0    0    0  0.00000000000E+00  0.00000000000E+00  0.14999999963E+04  0.15000000000E+04  0.10566000000E+00 0. -1.
        994   -1    0    0    0    0 -0.00000000000E+00 -0.00000000000E+00  0.11368683772E-12  0.17120000000E+03  0.17120000000E+03 0.  0.
         13    1    1    2    0    0 -0.32775042579E+02 -0.42450812533E+02  0.12323845162E+03  0.13440238846E+03  0.10566000000E+00 0. -1.
        994    1    1    2    0    0  0.27642831457E+02  0.45925806633E+02  0.20587969181E+02  0.18057300552E+03  0.17120000000E+03 0.  0.
        998    1    1    2    0    0  0.51322111227E+01 -0.34749941000E+01  0.13561735755E+04  0.13562246060E+04  0.10000000000E+02 0. -1.
</event>
<event>
 5    1  0.1533416E-008  0.3785999E+03  0.7957747E-01  0.3457278E+00
         13   -1    0    0    0    0  0.00000000000E+00  0.00000000000E+00  0.14999999963E+04  0.15000000000E+04  0.10566000000E+00 0.  1.
        994   -1    0    0    0    0 -0.00000000000E+00 -0.00000000000E+00  0.11368683772E-12  0.17120000000E+03  0.17120000000E+03 0.  0.
         13    1    1    2    0    0 -0.15047225910E+02  0.35639849053E+01  0.22324339000E+02  0.27157103524E+02  0.10566000000E+00 0.  1.
        994    1    1    2    0    0  0.16774643561E+02 -0.83805846686E+00  0.57895582102E+01  0.17211929001E+03  0.17120000000E+03 0.  0.
        998    1    1    2    0    0 -0.17274176508E+01 -0.27259264384E+01  0.14718860991E+04  0.14719236065E+04  0.10000000000E+02 0.  1.
</event>
<event>
 5    1  0.1533416E-008  0.3849820E+03  0.7957747E-01  0.3429749E+00
         13   -1    0    0    0    0  0.00000000000E+00  0.00000000000E+00  0.14999999963E+04  0.15000000000E+04  0.10566000000E+00 0.  1.
        994   -1    0    0    0    0 -0.00000000000E+00 -0.00000000000E+00  0.11368683772E-12  0.17120000000E+03  0.17120000000E+03 0.  0.
         13    1    1    2    0    0  0.72006933945E+01  0.14553936117E+02  0.81129777409E+02  0.82738860207E+02  0.10566000000E+00 0.  1.
        994    1    1    2    0    0  0.69448610062E+00 -0.10863522795E+02  0.20289015816E+01  0.17155773046E+03  0.17120000000E+03 0.  0.
        998    1    1    2    0    0 -0.78951794952E+01 -0.36904133212E+01  0.14168413173E+04  0.14169034093E+04  0.10000000000E+02 0.  1.
</event>
<event>
 5    1  0.1533416E-008  0.3823478E+03  0.7957747E-01  0.3440999E+00
         13   -1    0    0    0    0  0.00000000000E+00  0.00000000000E+00  0.14999999963E+04  0.15000000000E+04  0.10566000000E+00 0.  1.
        994   -1    0    0    0    0 -0.00000000000E+00 -0.00000000000E+00  0.11368683772E-12  0.17120000000E+03  0.17120000000E+03 0.  0.
         13    1    1    2    0    0  0.23368569446E+02  0.54096342676E+01  0.92128384606E+02  0.95199814049E+02  0.10566000000E+00 0.  1.
        994    1    1    2    0    0 -0.26291959358E+02  0.10419719574E+02  0.56103960182E+01  0.17361092773E+03  0.17120000000E+03 0.  0.
        998    1    1    2    0    0  0.29233899116E+01 -0.15829353842E+02  0.14022612157E+04  0.14023892582E+04  0.10000000000E+02 0.  1.
</event>
<event>
 5    1  0.1533416E-008  0.3714614E+03  0.7957747E-01  0.3489201E+00
         13   -1    0    0    0    0  0.00000000000E+00  0.00000000000E+00  0.14999999963E+04  0.15000000000E+04  0.10566000000E+00 0. -1.
        994   -1    0    0    0    0 -0.00000000000E+00 -0.00000000000E+00  0.11368683772E-12  0.17120000000E+03  0.17120000000E+03 0.  0.
         13    1    1    2    0    0  0.74060389596E+02  0.22525620126E+02  0.31897986820E+03  0.32823849919E+03  0.10566000000E+00 0. -1.
        994    1    1    2    0    0 -0.48966931357E+01 -0.13118152798E+02  0.12402904718E+02  0.17221885954E+03  0.17120000000E+03 0.  0.
        998    1    1    2    0    0 -0.69163696461E+02 -0.94074673280E+01  0.11686172234E+04  0.11707426413E+04  0.10000000000E+02 0. -1.
</event>
<event>
 5    1  0.1533416E-008  0.3857854E+03  0.7957747E-01  0.3426348E+00
         13   -1    0    0    0    0  0.00000000000E+00  0.00000000000E+00  0.14999999963E+04  0.15000000000E+04  0.10566000000E+00 0.  1.
        994   -1    0    0    0    0 -0.00000000000E+00 -0.00000000000E+00  0.11368683772E-12  0.17120000000E+03  0.17120000000E+03 0.  0.
         13    1    1    2    0    0 -0.12614663865E+02 -0.63434342904E+01  0.83375922100E+02  0.84563138855E+02  0.10566000000E+00 0.  1.
        994    1    1    2    0    0  0.56141456261E+01  0.16374407027E+01  0.13528742796E+01  0.17130519581E+03  0.17120000000E+03 0.  0.
        998    1    1    2    0    0  0.70005182387E+01  0.47059935876E+01  0.14152711999E+04  0.14153316653E+04  0.10000000000E+02 0.  1.
</event>
<event>
 5    1  0.1533416E-008  0.3740997E+03  0.7957747E-01  0.3477259E+00
         13   -1    0    0    0    0  0.00000000000E+00  0.00000000000E+00  0.14999999963E+04  0.15000000000E+04  0.10566000000E+00 0.  1.
        994   -1    0    0    0    0 -0.00000000000E+00 -0.00000000000E+00  0.11368683772E-12  0.17120000000E+03  0.17120000000E+03 0.  0.
         13    1    1    2    0    0  0.31365283191E+02  0.51909639648E+01  0.64598337991E+02  0.71997802271E+02  0.10566000000E+00 0.  1.
        994    1    1    2    0    0 -0.34114968081E+02 -0.12684322713E+02  0.11671877917E+02  0.17541492475E+03  0.17120000000E+03 0.  0.
        998    1    1    2    0    0  0.27496848905E+01  0.74933587485E+01  0.14237297804E+04  0.14237872730E+04  0.10000000000E+02 0.  1.
</event>
<event>
 5    1  0.1533416E-008  0.3820771E+03  0.7957747E-01  0.3442164E+00
         13   -1    0    0    0    0  0.00000000000E+00  0.00000000000E+00  0.14999999963E+04  0.15000000000E+04  0.10566000000E+00 0.  1.
        994   -1    0    0    0    0 -0.00000000000E+00 -0.00000000000E+00  0.11368683772E-12  0.17120000000E+03  0.17120000000E+03 0.  0.
         13    1    1    2    0    0  0.83258828207E+01 -0.94614166634E+01  0.24752982996E+02  0.27776969980E+02  0.10566000000E+00 0.  1.
        994    1    1    2    0    0 -0.16557093659E+01  0.65471862890E+01  0.32397200699E+01  0.17136377332E+03  0.17120000000E+03 0.  0.
        998    1    1    2    0    0 -0.66701734548E+01  0.29142303743E+01  0.14720072932E+04  0.14720592567E+04  0.10000000000E+02 0.  1.
</event>
<event>
 5    1  0.1533416E-008  0.3815704E+03  0.7957747E-01  0.3444349E+00
         13   -1    0    0    0    0  0.00000000000E+00  0.00000000000E+00  0.14999999963E+04  0.15000000000E+04  0.10566000000E+00 0.  1.
        994   -1    0    0    0    0 -0.00000000000E+00 -0.00000000000E+00  0.11368683772E-12  0.17120000000E+03  0.17120000000E+03 0.  0.
         13    1    1    2    0    0 -0.37446007194E+01  0.10678670492E+02  0.17703615767E+02  0.21011549521E+02  0.10566000000E+00 0.  1.
        994    1    1    2    0    0  0.19325689113E+01 -0.96953831368E+01  0.36676017498E+01  0.17152441978E+03  0.17120000000E+03 0.  0.
        998    1    1    2    0    0  0.18120318081E+01 -0.98328735470E+00  0.14786287788E+04  0.14786640307E+04  0.10000000000E+02 0.  1.
</event>
<event>
 5    1  0.1533416E-008  0.3707637E+03  0.7957747E-01  0.3492389E+00
         13   -1    0    0    0    0  0.00000000000E+00  0.00000000000E+00  0.14999999963E+04  0.15000000000E+04  0.10566000000E+00 0.  1.
        994   -1    0    0    0    0 -0.00000000000E+00 -0.00000000000E+00  0.11368683772E-12  0.17120000000E+03  0.17120000000E+03 0.  0.
         13    1    1    2    0    0 -0.54200973054E+02 -0.25639496416E+02  0.16984589924E+03  0.18011876612E+03  0.10566000000E+00 0.  1.
        994    1    1    2    0    0  0.57588666935E+02  0.39826757427E+02  0.25972392725E+02  0.18677963045E+03  0.17120000000E+03 0.  0.
        998    1    1    2    0    0 -0.33876938808E+01 -0.14187261012E+02  0.13041817043E+04  0.13043016034E+04  0.10000000000E+02 0.  1.
</event>
<event>
 5    1  0.1533416E-008  0.3858491E+03  0.7957747E-01  0.3426079E+00
         13   -1    0    0    0    0  0.00000000000E+00  0.00000000000E+00  0.14999999963E+04  0.15000000000E+04  0.10566000000E+00 0. -1.
        994   -1    0    0    0    0 -0.00000000000E+00 -0.00000000000E+00  0.11368683772E-12  0.17120000000E+03  0.17120000000E+03 0.  0.
         13    1    1    2    0    0 -0.39400816911E+01 -0.10691125516E+02  0.61322221355E+02  0.62371871902E+02  0.10566000000E+00 0. -1.
        994    1    1    2    0    0  0.34904773017E+01 -0.11188257371E+02  0.16597878131E+01  0.17160872772E+03  0.17120000000E+03 0.  0.
        998    1    1    2    0    0  0.44960438943E+00  0.21879382887E+02  0.14370179871E+04  0.14372194004E+04  0.10000000000E+02 0. -1.
</event>
<event>
 5    1  0.1533416E-008  0.3810727E+03  0.7957747E-01  0.3446501E+00
         13   -1    0    0    0    0  0.00000000000E+00  0.00000000000E+00  0.14999999963E+04  0.15000000000E+04  0.10566000000E+00 0.  1.
        994   -1    0    0    0    0 -0.00000000000E+00 -0.00000000000E+00  0.11368683772E-12  0.17120000000E+03  0.17120000000E+03 0.  0.
         13    1    1    2    0    0 -0.29000010605E+03 -0.10968139763E+03  0.87896159050E+03  0.93204268102E+03  0.10566000000E+00 0.  1.
        994    1    1    2    0    0  0.29861965454E+03  0.10637849337E+03  0.49415484041E+03  0.61154601481E+03  0.17120000000E+03 0.  0.
        998    1    1    2    0    0 -0.86195484842E+01  0.33029042635E+01  0.12688356537E+03  0.12761130417E+03  0.10000000000E+02 0.  1.
</event>
<event>
 5    1  0.1533416E-008  0.3837248E+03  0.7957747E-01  0.3435099E+00
         13   -1    0    0    0    0  0.00000000000E+00  0.00000000000E+00  0.14999999963E+04  0.15000000000E+04  0.10566000000E+00 0. -1.
        994   -1    0    0    0    0 -0.00000000000E+00 -0.00000000000E+00  0.11368683772E-12  0.17120000000E+03  0.17120000000E+03 0.  0.
         13    1    1    2    0    0  0.30362997182E+01 -0.21423003677E+02  0.97257447369E+02  0.99635267026E+02  0.10566000000E+00 0. -1.
        994    1    1    2    0    0  0.20772708239E+01  0.22556254625E+02  0.39608198633E+01  0.17273745329E+03  0.17120000000E+03 0.  0.
        998    1    1    2    0    0 -0.51135705420E+01 -0.11332509480E+01  0.13987817290E+04  0.13988272797E+04  0.10000000000E+02 0. -1.
</event>
<event>
 5    1  0.1533416E-008  0.3857992E+03  0.7957747E-01  0.3426290E+00
         13   -1    0    0    0    0  0.00000000000E+00  0.00000000000E+00  0.14999999963E+04  0.15000000000E+04  0.10566000000E+00 0. -1.
        994   -1    0    0    0    0 -0.00000000000E+00 -0.00000000000E+00  0.11368683772E-12  0.17120000000E+03  0.17120000000E+03 0.  0.
         13    1    1    2    0    0 -0.12204921259E+02 -0.62588142892E+01  0.76758820349E+02  0.77974742864E+02  0.10566000000E+00 0. -1.
        994    1    1    2    0    0  0.99671962091E+01  0.86515939929E+00  0.15622761209E+01  0.17149919594E+03  0.17120000000E+03 0.  0.
        998    1    1    2    0    0  0.22377250495E+01  0.53936548899E+01  0.14216788998E+04  0.14217260612E+04  0.10000000000E+02 0. -1.
</event>
<event>
 5    1  0.1533416E-008  0.3754528E+03  0.7957747E-01  0.3471200E+00
         13   -1    0    0    0    0  0.00000000000E+00  0.00000000000E+00  0.14999999963E+04  0.15000000000E+04  0.10566000000E+00 0. -1.
        994   -1    0    0    0    0 -0.00000000000E+00 -0.00000000000E+00  0.11368683772E-12  0.17120000000E+03  0.17120000000E+03 0.  0.
         13    1    1    2    0    0  0.51430439778E+02  0.15150922513E+02  0.24207578656E+03  0.24794220736E+03  0.10566000000E+00 0. -1.
        994    1    1    2    0    0 -0.23195916447E+02  0.15106602576E+02  0.90514635080E+01  0.17365952025E+03  0.17120000000E+03 0.  0.
        998    1    1    2    0    0 -0.28234523331E+02 -0.30257525089E+02  0.12488727462E+04  0.12495982724E+04  0.10000000000E+02 0. -1.
</event>
<event>
 5    1  0.1533416E-008  0.3844837E+03  0.7957747E-01  0.3431865E+00
         13   -1    0    0    0    0  0.00000000000E+00  0.00000000000E+00  0.14999999963E+04  0.15000000000E+04  0.10566000000E+00 0. -1.
        994   -1    0    0    0    0 -0.00000000000E+00 -0.00000000000E+00  0.11368683772E-12  0.17120000000E+03  0.17120000000E+03 0.  0.
         13    1    1    2    0    0  0.18063570605E+02  0.53998639328E+01  0.90927889592E+02  0.92861958751E+02  0.10566000000E+00 0. -1.
        994    1    1    2    0    0 -0.17568864909E+02  0.12152860854E+00  0.29042089985E+01  0.17212365966E+03  0.17120000000E+03 0.  0.
        998    1    1    2    0    0 -0.49470569558E+00 -0.55213925413E+01  0.14061678977E+04  0.14062143816E+04  0.10000000000E+02 0. -1.
</event>
<event>
 5    1  0.1533416E-008  0.3813612E+03  0.7957747E-01  0.3445253E+00
         13   -1    0    0    0    0  0.00000000000E+00  0.00000000000E+00  0.14999999963E+04  0.15000000000E+04  0.10566000000E+00 0. -1.
        994   -1    0    0    0    0 -0.00000000000E+00 -0.00000000000E+00  0.11368683772E-12  0.17120000000E+03  0.17120000000E+03 0.  0.
         13    1    1    2    0    0  0.74080261425E+01  0.28983075323E+02  0.14381380939E+03  0.14689220688E+03  0.10566000000E+00 0. -1.
        994    1    1    2    0    0 -0.66762882340E+00 -0.13817060426E+01  0.34554433850E+01  0.17124174412E+03  0.17120000000E+03 0.  0.
        998    1    1    2    0    0 -0.67403973191E+01 -0.27601369281E+02  0.13527307435E+04  0.13530660490E+04  0.10000000000E+02 0. -1.
</event>
<event>
 5    1  0.1533416E-008  0.3773646E+03  0.7957747E-01  0.3462714E+00
         13   -1    0    0    0    0  0.00000000000E+00  0.00000000000E+00  0.14999999963E+04  0.15000000000E+04  0.10566000000E+00 0. -1.
        994   -1    0    0    0    0 -0.00000000000E+00 -0.00000000000E+00  0.11368683772E-12  0.17120000000E+03  0.17120000000E+03 0.  0.
         13    1    1    2    0    0  0.18406493781E+02  0.42474582873E+02  0.65946666707E+02  0.80572099496E+02  0.10566000000E+00 0. -1.
        994    1    1    2    0    0 -0.31892766591E+02 -0.24541098301E+02  0.20721473075E+02  0.17708256129E+03  0.17120000000E+03 0.  0.
        998    1    1    2    0    0  0.13486272811E+02 -0.17933484571E+02  0.14133318565E+04  0.14135453392E+04  0.10000000000E+02 0. -1.
</event>
<event>
 5    1  0.1533416E-008  0.3820055E+03  0.7957747E-01  0.3442472E+00
         13   -1    0    0    0    0  0.00000000000E+00  0.00000000000E+00  0.14999999963E+04  0.15000000000E+04  0.10566000000E+00 0. -1.
        994   -1    0    0    0    0 -0.00000000000E+00 -0.00000000000E+00  0.11368683772E-12  0.17120000000E+03  0.17120000000E+03 0.  0.
         13    1    1    2    0    0  0.33708942832E+01 -0.17315057369E+02  0.47827403355E+02  0.50976914537E+02  0.10566000000E+00 0. -1.
        994    1    1    2    0    0  0.30792937017E+01  0.17098286646E+02  0.41271692309E+01  0.17212875118E+03  0.17120000000E+03 0.  0.
        998    1    1    2    0    0 -0.64501879849E+01  0.21677072313E+00  0.14480454237E+04  0.14480943343E+04  0.10000000000E+02 0. -1.
</event>
<event>
 5    1  0.1533416E-008  0.3836659E+03  0.7957747E-01  0.3435350E+00
         13   -1    0    0    0    0  0.00000000000E+00  0.00000000000E+00  0.14999999963E+04  0.15000000000E+04  0.10566000000E+00 0.  1.
        994   -1    0    0    0    0 -0.00000000000E+00 -0.00000000000E+00  0.11368683772E-12  0.17120000000E+03  0.17120000000E+03 0.  0.
         13    1    1    2    0    0 -0.62482011351E+01  0.10477627469E+02  0.32508573993E+02  0.34722316195E+02  0.10566000000E+00 0.  1.
        994    1    1    2    0    0 -0.17631853959E+01 -0.38643792103E+01  0.23535488281E+01  0.17126885719E+03  0.17120000000E+03 0.  0.
        998    1    1    2    0    0  0.80113865310E+01 -0.66132482590E+01  0.14651378735E+04  0.14652088266E+04  0.10000000000E+02 0.  1.
</event>
<event>
 5    1  0.1533416E-008  0.3845353E+03  0.7957747E-01  0.3431645E+00
         13   -1    0    0    0    0  0.00000000000E+00  0.00000000000E+00  0.14999999963E+04  0.15000000000E+04  0.10566000000E+00 0. -1.
        994   -1    0    0    0    0 -0.00000000000E+00 -0.00000000000E+00  0.11368683772E-12  0.17120000000E+03  0.17120000000E+03 0.  0.
         13    1    1    2    0    0 -0.15382821021E+02  0.45352744198E+01  0.68556783969E+02  0.70407696232E+02  0.10566000000E+00 0. -1.
        994    1    1    2    0    0  0.10027910509E+02 -0.58931484136E+01  0.23067378059E+01  0.17161016644E+03  0.17120000000E+03 0.  0.
        998    1    1    2    0    0  0.53549105113E+01  0.13578739938E+01  0.14291364745E+04  0.14291821373E+04  0.10000000000E+02 0. -1.
</event>
<event>
 5    1  0.1533416E-008  0.3857626E+03  0.7957747E-01  0.3426445E+00
         13   -1    0    0    0    0  0.00000000000E+00  0.00000000000E+00  0.14999999963E+04  0.15000000000E+04  0.10566000000E+00 0.  1.
        994   -1    0    0    0    0 -0.00000000000E+00 -0.00000000000E+00  0.11368683772E-12  0.17120000000E+03  0.17120000000E+03 0.  0.
         13    1    1    2    0    0  0.12804519267E+02 -0.79096483979E+01  0.76930317320E+02  0.78388794725E+02  0.10566000000E+00 0.  1.
        994    1    1    2    0    0 -0.29393177330E+02  0.13876396541E+02  0.47256371585E+01  0.17432235915E+03  0.17120000000E+03 0.  0.
        998    1    1    2    0    0  0.16588658063E+02 -0.59667481431E+01  0.14183440418E+04  0.14184888461E+04  0.10000000000E+02 0.  1.
</event>
<event>
 5    1  0.1533416E-008  0.3856240E+03  0.7957747E-01  0.3427030E+00
         13   -1    0    0    0    0  0.00000000000E+00  0.00000000000E+00  0.14999999963E+04  0.15000000000E+04  0.10566000000E+00 0.  1.
        994   -1    0    0    0    0 -0.00000000000E+00 -0.00000000000E+00  0.11368683772E-12  0.17120000000E+03  0.17120000000E+03 0.  0.
         13    1    1    2    0    0  0.15405843040E+02 -0.37515565917E+01  0.91097457902E+02  0.92467141066E+02  0.10566000000E+00 0.  1.
        994    1    1    2    0    0 -0.17657477094E+02 -0.30813935353E+01  0.23757855458E+01  0.17215215898E+03  0.17120000000E+03 0.  0.
        998    1    1    2    0    0  0.22516340537E+01  0.68329501270E+01  0.14065267528E+04  0.14065807000E+04  0.10000000000E+02 0.  1.
</event>
<event>
 5    1  0.1533416E-008  0.3692568E+03  0.7957747E-01  0.3499314E+00
         13   -1    0    0    0    0  0.00000000000E+00  0.00000000000E+00  0.14999999963E+04  0.15000000000E+04  0.10566000000E+00 0.  1.
        994   -1    0    0    0    0 -0.00000000000E+00 -0.00000000000E+00  0.11368683772E-12  0.17120000000E+03  0.17120000000E+03 0.  0.
         13    1    1    2    0    0 -0.92211227231E+02 -0.10484520539E+03  0.60479482884E+03  0.62070300763E+03  0.10566000000E+00 0.  1.
        994    1    1    2    0    0  0.72881234982E+02  0.11473837523E+03  0.76733985380E+02  0.23167674392E+03  0.17120000000E+03 0.  0.
        998    1    1    2    0    0  0.19329992250E+02 -0.98931698350E+01  0.81847118206E+03  0.81882024845E+03  0.10000000000E+02 0. -1.
</event>
<event>
 5    1  0.1533416E-008  0.3816298E+03  0.7957747E-01  0.3444093E+00
         13   -1    0    0    0    0  0.00000000000E+00  0.00000000000E+00  0.14999999963E+04  0.15000000000E+04  0.10566000000E+00 0. -1.
        994   -1    0    0    0    0 -0.00000000000E+00 -0.00000000000E+00  0.11368683772E-12  0.17120000000E+03  0.17120000000E+03 0.  0.
         13    1    1    2    0    0  0.61841402722E+01 -0.18007197569E+02  0.58508534720E+02  0.61528550725E+02  0.10566000000E+00 0. -1.
        994    1    1    2    0    0 -0.11701270225E+02 -0.11827037176E+02  0.42335918207E+01  0.17205860000E+03  0.17120000000E+03 0.  0.
        998    1    1    2    0    0  0.55171299532E+01  0.29834234745E+02  0.14372578697E+04  0.14376128493E+04  0.10000000000E+02 0. -1.
</event>
<event>
 5    1  0.1533416E-008  0.3853963E+03  0.7957747E-01  0.3427993E+00
         13   -1    0    0    0    0  0.00000000000E+00  0.00000000000E+00  0.14999999963E+04  0.15000000000E+04  0.10566000000E+00 0. -1.
        994   -1    0    0    0    0 -0.00000000000E+00 -0.00000000000E+00  0.11368683772E-12  0.17120000000E+03  0.17120000000E+03 0.  0.
         13    1    1    2    0    0  0.11637951130E+02 -0.36398307438E+01  0.49594838502E+02  0.51072002549E+02  0.10566000000E+00 0. -1.
        994    1    1    2    0    0 -0.16800638686E+02  0.11786909952E+01  0.23656738269E+01  0.17204269001E+03  0.17120000000E+03 0.  0.
        998    1    1    2    0    0  0.51626875559E+01  0.24611397486E+01  0.14480394840E+04  0.14480853074E+04  0.10000000000E+02 0. -1.
</event>
<event>
 5    1  0.1533416E-008  0.3831672E+03  0.7957747E-01  0.3437483E+00
         13   -1    0    0    0    0  0.00000000000E+00  0.00000000000E+00  0.14999999963E+04  0.15000000000E+04  0.10566000000E+00 0.  1.
        994   -1    0    0    0    0 -0.00000000000E+00 -0.00000000000E+00  0.11368683772E-12  0.17120000000E+03  0.17120000000E+03 0.  0.
         13    1    1    2    0    0  0.27802424374E+02  0.22632441881E+01  0.16332192274E+03  0.16568692974E+03  0.10566000000E+00 0.  1.
        994    1    1    2    0    0 -0.87783015690E+01  0.53013793360E+01  0.28908224318E+01  0.17153122181E+03  0.17120000000E+03 0.  0.
        998    1    1    2    0    0 -0.19024122805E+02 -0.75646235242E+01  0.13337872511E+04  0.13339818484E+04  0.10000000000E+02 0.  1.
</event>
<event>
 5    1  0.1533416E-008  0.3847379E+03  0.7957747E-01  0.3430785E+00
         13   -1    0    0    0    0  0.00000000000E+00  0.00000000000E+00  0.14999999963E+04  0.15000000000E+04  0.10566000000E+00 0. -1.
        994   -1    0    0    0    0 -0.00000000000E+00 -0.00000000000E+00  0.11368683772E-12  0.17120000000E+03  0.17120000000E+03 0.  0.
         13    1    1    2    0    0 -0.82769625956E+01 -0.14957718069E+02  0.90827357976E+02  0.92422191927E+02  0.10566000000E+00 0. -1.
        994    1    1    2    0    0 -0.21626942719E+01 -0.40383513321E+00  0.17762512713E+01  0.17122334945E+03  0.17120000000E+03 0.  0.
        998    1    1    2    0    0  0.10439656868E+02  0.15361553202E+02  0.14073963870E+04  0.14075544586E+04  0.10000000000E+02 0. -1.
</event>
<event>
 5    1  0.1533416E-008  0.3788527E+03  0.7957747E-01  0.3456170E+00
         13   -1    0    0    0    0  0.00000000000E+00  0.00000000000E+00  0.14999999963E+04  0.15000000000E+04  0.10566000000E+00 0. -1.
        994   -1    0    0    0    0 -0.00000000000E+00 -0.00000000000E+00  0.11368683772E-12  0.17120000000E+03  0.17120000000E+03 0.  0.
         13    1    1    2    0    0  0.33583490852E+02  0.74703207320E+01  0.14530000103E+03  0.14931764133E+03  0.10566000000E+00 0. -1.
        994    1    1    2    0    0 -0.90747389333E+00  0.28173895783E+02  0.73843850317E+01  0.17366220388E+03  0.17120000000E+03 0.  0.
        998    1    1    2    0    0 -0.32676016959E+02 -0.35644216515E+02  0.13473156102E+04  0.13482201548E+04  0.10000000000E+02 0. -1.
</event>
<event>
 5    1  0.1533416E-008  0.3756921E+03  0.7957747E-01  0.3470133E+00
         13   -1    0    0    0    0  0.00000000000E+00  0.00000000000E+00  0.14999999963E+04  0.15000000000E+04  0.10566000000E+00 0.  1.
        994   -1    0    0    0    0 -0.00000000000E+00 -0.00000000000E+00  0.11368683772E-12  0.17120000000E+03  0.17120000000E+03 0.  0.
         13    1    1    2    0    0  0.95226176833E+02 -0.26774971048E+02  0.48482816289E+03  0.49481641295E+03  0.10566000000E+00 0.  1.
        994    1    1    2    0    0 -0.10019904077E+03  0.27502269305E+02  0.43864277900E+02  0.20501155447E+03  0.17120000000E+03 0.  0.
        998    1    1    2    0    0  0.49728639389E+01 -0.72729825749E+00  0.97130755549E+03  0.97137203258E+03  0.10000000000E+02 0.  1.
</event>
<event>
 5    1  0.1533416E-008  0.3850800E+03  0.7957747E-01  0.3429333E+00
         13   -1    0    0    0    0  0.00000000000E+00  0.00000000000E+00  0.14999999963E+04  0.15000000000E+04  0.10566000000E+00 0. -1.
        994   -1    0    0    0    0 -0.00000000000E+00 -0.00000000000E+00  0.11368683772E-12  0.17120000000E+03  0.17120000000E+03 0.  0.
         13    1    1    2    0    0 -0.12977134707E+02  0.62634776824E+01  0.64468478010E+02  0.66059314247E+02  0.10566000000E+00 0. -1.
        994    1    1    2    0    0  0.85287233518E+01 -0.90950807885E+01  0.21017072865E+01  0.17166629486E+03  0.17120000000E+03 0.  0.
        998    1    1    2    0    0  0.44484113551E+01  0.28316031061E+01  0.14334298110E+04  0.14334743909E+04  0.10000000000E+02 0. -1.
</event>
<event>
 5    1  0.1533416E-008  0.3849320E+03  0.7957747E-01  0.3429961E+00
         13   -1    0    0    0    0  0.00000000000E+00  0.00000000000E+00  0.14999999963E+04  0.15000000000E+04  0.10566000000E+00 0.  1.
        994   -1    0    0    0    0 -0.00000000000E+00 -0.00000000000E+00  0.11368683772E-12  0.17120000000E+03  0.17120000000E+03 0.  0.
         13    1    1    2    0    0  0.14512800140E+01  0.12270542667E+02  0.45595115439E+02  0.47239794104E+02  0.10566000000E+00 0.  1.
        994    1    1    2    0    0  0.16105868613E+01 -0.92408331529E+01  0.19533919414E+01  0.17146790582E+03  0.17120000000E+03 0.  0.
        998    1    1    2    0    0 -0.30618668754E+01 -0.30297095142E+01  0.14524514889E+04  0.14524923001E+04  0.10000000000E+02 0.  1.
</event>
<event>
 5    1  0.1533416E-008  0.3826591E+03  0.7957747E-01  0.3439661E+00
         13   -1    0    0    0    0  0.00000000000E+00  0.00000000000E+00  0.14999999963E+04  0.15000000000E+04  0.10566000000E+00 0.  1.
        994   -1    0    0    0    0 -0.00000000000E+00 -0.00000000000E+00  0.11368683772E-12  0.17120000000E+03  0.17120000000E+03 0.  0.
         13    1    1    2    0    0 -0.22844663594E+02  0.24687532114E+02  0.18017889407E+03  0.18329156535E+03  0.10566000000E+00 0.  1.
        994    1    1    2    0    0  0.27079735159E+02 -0.20364452080E+02  0.66105038753E+01  0.17464581795E+03  0.17120000000E+03 0.  0.
        998    1    1    2    0    0 -0.42350715644E+01 -0.43230800340E+01  0.13132105983E+04  0.13132626167E+04  0.10000000000E+02 0.  1.
</event>
<event>
 5    1  0.1533416E-008  0.3858448E+03  0.7957747E-01  0.3426097E+00
         13   -1    0    0    0    0  0.00000000000E+00  0.00000000000E+00  0.14999999963E+04  0.15000000000E+04  0.10566000000E+00 0. -1.
        994   -1    0    0    0    0 -0.00000000000E+00 -0.00000000000E+00  0.11368683772E-12  0.17120000000E+03  0.17120000000E+03 0.  0.
         13    1    1    2    0    0 -0.53013816602E+01 -0.13190534860E+02  0.81678311171E+02  0.82906287682E+02  0.10566000000E+00 0. -1.
        994    1    1    2    0    0  0.14941239381E+01  0.13432484251E+02  0.18106046752E+01  0.17174219729E+03  0.17120000000E+03 0.  0.
        998    1    1    2    0    0  0.38072577221E+01 -0.24194939115E+00  0.14165110804E+04  0.14165515150E+04  0.10000000000E+02 0. -1.
</event>
<event>
 5    1  0.1533416E-008  0.3855188E+03  0.7957747E-01  0.3427475E+00
         13   -1    0    0    0    0  0.00000000000E+00  0.00000000000E+00  0.14999999963E+04  0.15000000000E+04  0.10566000000E+00 0.  1.
        994   -1    0    0    0    0 -0.00000000000E+00 -0.00000000000E+00  0.11368683772E-12  0.17120000000E+03  0.17120000000E+03 0.  0.
         13    1    1    2    0    0  0.19297357452E+01 -0.11230292823E+02  0.47481052771E+02  0.48829344591E+02  0.10566000000E+00 0.  1.
        994    1    1    2    0    0  0.80621044043E+00  0.79863317129E+01  0.15843495682E+01  0.17139539560E+03  0.17120000000E+03 0.  0.
        998    1    1    2    0    0 -0.27359461857E+01  0.32439611100E+01  0.14509345939E+04  0.14509752598E+04  0.10000000000E+02 0.  1.
</event>
<event>
 5    1  0.1533416E-008  0.3811520E+03  0.7957747E-01  0.3446158E+00
         13   -1    0    0    0    0  0.00000000000E+00  0.00000000000E+00  0.14999999963E+04  0.15000000000E+04  0.10566000000E+00 0.  1.
        994   -1    0    0    0    0 -0.00000000000E+00 -0.00000000000E+00  0.11368683772E-12  0.17120000000E+03  0.17120000000E+03 0.  0.
         13    1    1    2    0    0 -0.17272200494E+02 -0.47429257442E+01  0.43298230642E+02  0.46856933268E+02  0.10566000000E+00 0.  1.
        994    1    1    2    0    0  0.14543741418E+02  0.47200081167E+01  0.43317306858E+01  0.17193604271E+03  0.17120000000E+03 0.  0.
        998    1    1    2    0    0  0.27284590760E+01  0.22917627532E-01  0.14523700350E+04  0.14524070240E+04  0.10000000000E+02 0.  1.
</event>
<event>
 5    1  0.1533416E-008  0.3821540E+03  0.7957747E-01  0.3441833E+00
         13   -1    0    0    0    0  0.00000000000E+00  0.00000000000E+00  0.14999999963E+04  0.15000000000E+04  0.10566000000E+00 0.  1.
        994   -1    0    0    0    0 -0.00000000000E+00 -0.00000000000E+00  0.11368683772E-12  0.17120000000E+03  0.17120000000E+03 0.  0.
         13    1    1    2    0    0  0.24988223675E+02 -0.25453338448E+02  0.19733022142E+03  0.20052808085E+03  0.10566000000E+00 0.  1.
        994    1    1    2    0    0 -0.25154922320E+02  0.13028632484E+02  0.57180810381E+01  0.17362215248E+03  0.17120000000E+03 0.  0.
        998    1    1    2    0    0  0.16669864487E+00  0.12424705964E+02  0.12969516938E+04  0.12970497667E+04  0.10000000000E+02 0.  1.
</event>
<event>
 5    1  0.1533416E-008  0.3787973E+03  0.7957747E-01  0.3456412E+00
         13   -1    0    0    0    0  0.00000000000E+00  0.00000000000E+00  0.14999999963E+04  0.15000000000E+04  0.10566000000E+00 0.  1.
        994   -1    0    0    0    0 -0.00000000000E+00 -0.00000000000E+00  0.11368683772E-12  0.17120000000E+03  0.17120000000E+03 0.  0.
         13    1    1    2    0    0  0.18754490170E+02  0.70766583720E+00  0.35072565503E+02  0.39778482971E+02  0.10566000000E+00 0.  1.
        994    1    1    2    0    0 -0.14251447387E+02 -0.32143997826E+01  0.54581652749E+01  0.17190889357E+03  0.17120000000E+03 0.  0.
        998    1    1    2    0    0 -0.45030427829E+01  0.25067339454E+01  0.14594692655E+04  0.14595126235E+04  0.10000000000E+02 0.  1.
</event>
<event>
 5    1  0.1533416E-008  0.3740846E+03  0.7957747E-01  0.3477327E+00
         13   -1    0    0    0    0  0.00000000000E+00  0.00000000000E+00  0.14999999963E+04  0.15000000000E+04  0.10566000000E+00 0.  1.
        994   -1    0    0    0    0 -0.00000000000E+00 -0.00000000000E+00  0.11368683772E-12  0.17120000000E+03  0.17120000000E+03 0.  0.
         13    1    1    2    0    0 -0.18448459738E+02 -0.55866055302E+02  0.21444393270E+03  0.22236810302E+03  0.10566000000E+00 0.  1.
        994    1    1    2    0    0  0.25227268444E+02  0.47298958413E+02  0.17011746690E+02  0.18020112670E+03  0.17120000000E+03 0.  0.
        998    1    1    2    0    0 -0.67788087065E+01  0.85670968887E+01  0.12685443169E+04  0.12686307703E+04  0.10000000000E+02 0.  1.
</event>
<event>
 5    1  0.1533416E-008  0.3685746E+03  0.7957747E-01  0.3502468E+00
         13   -1    0    0    0    0  0.00000000000E+00  0.00000000000E+00  0.14999999963E+04  0.15000000000E+04  0.10566000000E+00 0. -1.
        994   -1    0    0    0    0 -0.00000000000E+00 -0.00000000000E+00  0.11368683772E-12  0.17120000000E+03  0.17120000000E+03 0.  0.
         13    1    1    2    0    0  0.18982278647E+01  0.11134978984E+03  0.44169885968E+03  0.45552197837E+03  0.10566000000E+00 0. -1.
        994    1    1    2    0    0 -0.23925813959E+02 -0.10692301412E+03  0.52972740063E+02  0.21004886744E+03  0.17120000000E+03 0.  0.
        998    1    1    2    0    0  0.22027586094E+02 -0.44267757157E+01  0.10053283965E+04  0.10056291542E+04  0.10000000000E+02 0. -1.
</event>
<event>
 5    1  0.1533416E-008  0.3774875E+03  0.7957747E-01  0.3462172E+00
         13   -1    0    0    0    0  0.00000000000E+00  0.00000000000E+00  0.14999999963E+04  0.15000000000E+04  0.10566000000E+00 0. -1.
        994   -1    0    0    0    0 -0.00000000000E+00 -0.00000000000E+00  0.11368683772E-12  0.17120000000E+03  0.17120000000E+03 0.  0.
         13    1    1    2    0    0 -0.42212561486E+02  0.64712159030E+02  0.31823121206E+03  0.32747622718E+03  0.10566000000E+00 0. -1.
        994    1    1    2    0    0 -0.14026763614E+02  0.33549265566E+02  0.19716446273E+02  0.17612632277E+03  0.17120000000E+03 0.  0.
        998    1    1    2    0    0  0.56239325100E+02 -0.98261424596E+02  0.11620523379E+04  0.11675974501E+04  0.10000000000E+02 0. -1.
</event>
<event>
 5    1  0.1533416E-008  0.3804720E+03  0.7957747E-01  0.3449106E+00
         13   -1    0    0    0    0  0.00000000000E+00  0.00000000000E+00  0.14999999963E+04  0.15000000000E+04  0.10566000000E+00 0.  1.
        994   -1    0    0    0    0 -0.00000000000E+00 -0.00000000000E+00  0.11368683772E-12  0.17120000000E+03  0.17120000000E+03 0.  0.
         13    1    1    2    0    0 -0.36765501591E+01 -0.13204627392E+02  0.22163500048E+02  0.26059760245E+02  0.10566000000E+00 0.  1.
        994    1    1    2    0    0  0.31413743746E+01  0.15031005906E+02  0.46824802598E+01  0.17195105406E+03  0.17120000000E+03 0.  0.
        998    1    1    2    0    0  0.53517578445E+00 -0.18263785136E+01  0.14731540160E+04  0.14731891857E+04  0.10000000000E+02 0.  1.
</event>
<event>
 5    1  0.1533416E-008  0.3783835E+03  0.7957747E-01  0.3458227E+00
         13   -1    0    0    0    0  0.00000000000E+00  0.00000000000E+00  0.14999999963E+04  0.15000000000E+04  0.10566000000E+00 0. -1.
        994   -1    0    0    0    0 -0.00000000000E+00 -0.00000000000E+00  0.11368683772E-12  0.17120000000E+03  0.17120000000E+03 0.  0.
         13    1    1    2    0    0  0.21870092137E+02  0.59771540771E+02  0.33559846401E+03  0.34158055891E+03  0.10566000000E+00 0. -1.
        994    1    1    2    0    0  0.43034965458E+02 -0.87769636565E+02  0.37768993855E+02  0.20072731317E+03  0.17120000000E+03 0.  0.
        998    1    1    2    0    0 -0.64905057595E+02  0.27998095793E+02  0.11266325384E+04  0.11288921279E+04  0.10000000000E+02 0. -1.
</event>
<event>
 5    1  0.1533416E-008  0.3854885E+03  0.7957747E-01  0.3427603E+00
         13   -1    0    0    0    0  0.00000000000E+00  0.00000000000E+00  0.14999999963E+04  0.15000000000E+04  0.10566000000E+00 0. -1.
        994   -1    0    0    0    0 -0.00000000000E+00 -0.00000000000E+00  0.11368683772E-12  0.17120000000E+03  0.17120000000E+03 0.  0.
         13    1    1    2    0    0  0.81614949274E+01  0.10756826547E+02  0.64172747249E+02  0.65577983884E+02  0.10566000000E+00 0. -1.
        994    1    1    2    0    0 -0.94968255512E+01 -0.92805123115E+01  0.19669241399E+01  0.17172543899E+03  0.17120000000E+03 0.  0.
        998    1    1    2    0    0  0.13353306238E+01 -0.14763142355E+01  0.14338603249E+04  0.14338965771E+04  0.10000000000E+02 0. -1.
</event>
<event>
 5    1  0.1533416E-008  0.3832099E+03  0.7957747E-01  0.3437300E+00
         13   -1    0    0    0    0  0.00000000000E+00  0.00000000000E+00  0.14999999963E+04  0.15000000000E+04  0.10566000000E+00 0. -1.
        994   -1    0    0    0    0 -0.00000000000E+00 -0.00000000000E+00  0.11368683772E-12  0.17120000000E+03  0.17120000000E+03 0.  0.
         13    1    1    2    0    0 -0.16721587443E+02 -0.44911574108E+01  0.62174502750E+02  0.64540389972E+02  0.10566000000E+00 0. -1.
        994    1    1    2    0    0  0.43346278308E+01 -0.14698344758E+02  0.32986674082E+01  0.17191611775E+03  0.17120000000E+03 0.  0.
        998    1    1    2    0    0  0.12386959612E+02  0.19189502169E+02  0.14345268261E+04  0.14347434923E+04  0.10000000000E+02 0. -1.
</event>
<event>
 5    1  0.1533416E-008  0.3794091E+03  0.7957747E-01  0.3453736E+00
         13   -1    0    0    0    0  0.00000000000E+00  0.00000000000E+00  0.14999999963E+04  0.15000000000E+04  0.10566000000E+00 0.  1.
        994   -1    0    0    0    0 -0.00000000000E+00 -0.00000000000E+00  0.11368683772E-12  0.17120000000E+03  0.17120000000E+03 0.  0.
         13    1    1    2    0    0  0.16285598842E+02 -0.59358364033E+01  0.31661572817E+02  0.36096000342E+02  0.10566000000E+00 0.  1.
        994    1    1    2    0    0 -0.14094218791E+02  0.97457209397E+01  0.54158362277E+01  0.17214063251E+03  0.17120000000E+03 0.  0.
        998    1    1    2    0    0 -0.21913800514E+01 -0.38098845364E+01  0.14629225872E+04  0.14629633671E+04  0.10000000000E+02 0.  1.
</event>
<event>
 5    1  0.1533416E-008  0.3859074E+03  0.7957747E-01  0.3425833E+00
         13   -1    0    0    0    0  0.00000000000E+00  0.00000000000E+00  0.14999999963E+04  0.15000000000E+04  0.10566000000E+00 0. -1.
        994   -1    0    0    0    0 -0.00000000000E+00 -0.00000000000E+00  0.11368683772E-12  0.17120000000E+03  0.17120000000E+03 0.  0.
         13    1    1    2    0    0  0.10500465262E+02  0.65265026880E+01  0.64226735117E+02  0.65405960553E+02  0.10566000000E+00 0. -1.
        994    1    1    2    0    0 -0.13186304826E+02  0.69957045528E+00  0.17522467142E+01  0.17171743768E+03  0.17120000000E+03 0.  0.
        998    1    1    2    0    0  0.26858395641E+01 -0.72260731433E+01  0.14340210144E+04  0.14340766018E+04  0.10000000000E+02 0. -1.
</event>
<event>
 5    1  0.1533416E-008  0.3838755E+03  0.7957747E-01  0.3434455E+00
         13   -1    0    0    0    0  0.00000000000E+00  0.00000000000E+00  0.14999999963E+04  0.15000000000E+04  0.10566000000E+00 0.  1.
        994   -1    0    0    0    0 -0.00000000000E+00 -0.00000000000E+00  0.11368683772E-12  0.17120000000E+03  0.17120000000E+03 0.  0.
         13    1    1    2    0    0  0.13660559093E+02  0.71220245047E+01  0.54966179682E+02  0.57084377729E+02  0.10566000000E+00 0.  1.
        994    1    1    2    0    0 -0.51882060031E+01 -0.21882027873E+01  0.22940967949E+01  0.17130793500E+03  0.17120000000E+03 0.  0.
        998    1    1    2    0    0 -0.84723530898E+01 -0.49338217174E+01  0.14427397198E+04  0.14428076873E+04  0.10000000000E+02 0.  1.
</event>
<event>
 5    1  0.1533416E-008  0.3820621E+03  0.7957747E-01  0.3442229E+00
         13   -1    0    0    0    0  0.00000000000E+00  0.00000000000E+00  0.14999999963E+04  0.15000000000E+04  0.10566000000E+00 0.  1.
        994   -1    0    0    0    0 -0.00000000000E+00 -0.00000000000E+00  0.11368683772E-12  0.17120000000E+03  0.17120000000E+03 0.  0.
         13    1    1    2    0    0  0.13634717752E+02  0.29089435610E+02  0.15561731463E+03  0.15889890046E+03  0.10566000000E+00 0.  1.
        994    1    1    2    0    0  0.97520969892E+00 -0.31221201408E+02  0.63422395369E+01  0.17414183430E+03  0.17120000000E+03 0.  0.
        998    1    1    2    0    0 -0.14609927451E+02  0.21317657976E+01  0.13380404421E+04  0.13381592652E+04  0.10000000000E+02 0.  1.
</event>
<event>
 5    1  0.1533416E-008  0.3738410E+03  0.7957747E-01  0.3478422E+00
         13   -1    0    0    0    0  0.00000000000E+00  0.00000000000E+00  0.14999999963E+04  0.15000000000E+04  0.10566000000E+00 0.  1.
        994   -1    0    0    0    0 -0.00000000000E+00 -0.00000000000E+00  0.11368683772E-12  0.17120000000E+03  0.17120000000E+03 0.  0.
         13    1    1    2    0    0  0.54806775263E+02 -0.20093738401E+02  0.19912075162E+03  0.20750090561E+03  0.10566000000E+00 0.  1.
        994    1    1    2    0    0 -0.60233534836E+02  0.12377898203E+02  0.20290658928E+02  0.18303672288E+03  0.17120000000E+03 0.  0.
        998    1    1    2    0    0  0.54267595733E+01  0.77158401975E+01  0.12805885857E+04  0.12806623715E+04  0.10000000000E+02 0.  1.
</event>
<event>
 5    1  0.1533416E-008  0.3858958E+03  0.7957747E-01  0.3425882E+00
         13   -1    0    0    0    0  0.00000000000E+00  0.00000000000E+00  0.14999999963E+04  0.15000000000E+04  0.10566000000E+00 0. -1.
        994   -1    0    0    0    0 -0.00000000000E+00 -0.00000000000E+00  0.11368683772E-12  0.17120000000E+03  0.17120000000E+03 0.  0.
         13    1    1    2    0    0 -0.84104161006E+01  0.72322380337E+01  0.48923738265E+02  0.50165562847E+02  0.10566000000E+00 0. -1.
        994    1    1    2    0    0  0.74435972139E+01 -0.19539010505E+02  0.26209406452E+01  0.17249199808E+03  0.17120000000E+03 0.  0.
        998    1    1    2    0    0  0.96681888666E+00  0.12306772471E+02  0.14484553174E+04  0.14485424391E+04  0.10000000000E+02 0. -1.
</event>
<event>
 5    1  0.1533416E-008  0.3806053E+03  0.7957747E-01  0.3448527E+00
         13   -1    0    0    0    0  0.00000000000E+00  0.00000000000E+00  0.14999999963E+04  0.15000000000E+04  0.10566000000E+00 0. -1.
        994   -1    0    0    0    0 -0.00000000000E+00 -0.00000000000E+00  0.11368683772E-12  0.17120000000E+03  0.17120000000E+03 0.  0.
         13    1    1    2    0    0 -0.19194562350E+02 -0.33277465961E+01  0.47617002694E+02  0.51447985682E+02  0.10566000000E+00 0. -1.
        994    1    1    2    0    0  0.11871286176E+02  0.24613245337E+02  0.63231966995E+01  0.17348245473E+03  0.17120000000E+03 0.  0.
        998    1    1    2    0    0  0.73232761745E+01 -0.21285498740E+02  0.14460597969E+04  0.14462695596E+04  0.10000000000E+02 0. -1.
</event>
<event>
 5    1  0.1533416E-008  0.3760213E+03  0.7957747E-01  0.3468668E+00
         13   -1    0    0    0    0  0.00000000000E+00  0.00000000000E+00  0.14999999963E+04  0.15000000000E+04  0.10566000000E+00 0.  1.
        994   -1    0    0    0    0 -0.00000000000E+00 -0.00000000000E+00  0.11368683772E-12  0.17120000000E+03  0.17120000000E+03 0.  0.
         13    1    1    2    0    0  0.37225526397E+01 -0.23275794863E+02  0.43918888545E+02  0.49844758598E+02  0.10566000000E+00 0.  1.
        994    1    1    2    0    0 -0.10666840753E+02  0.49656970921E+01  0.66242910970E+01  0.17173165367E+03  0.17120000000E+03 0.  0.
        998    1    1    2    0    0  0.69442881134E+01  0.18310097770E+02  0.14494568166E+04  0.14496235877E+04  0.10000000000E+02 0.  1.
</event>
<event>
 5    1  0.1533416E-008  0.3690489E+03  0.7957747E-01  0.3500273E+00
         13   -1    0    0    0    0  0.00000000000E+00  0.00000000000E+00  0.14999999963E+04  0.15000000000E+04  0.10566000000E+00 0.  1.
        994   -1    0    0    0    0 -0.00000000000E+00 -0.00000000000E+00  0.11368683772E-12  0.17120000000E+03  0.17120000000E+03 0.  0.
         13    1    1    2    0    0  0.52911360747E+02 -0.67086310834E+01  0.13947759696E+03  0.14932725487E+03  0.10566000000E+00 0.  1.
        994    1    1    2    0    0 -0.41477770439E+02 -0.27920431855E+02  0.18490060193E+02  0.17930777530E+03  0.17120000000E+03 0.  0.
        998    1    1    2    0    0 -0.11433590307E+02  0.34629062938E+02  0.13420323391E+04  0.13425649698E+04  0.10000000000E+02 0.  1.
</event>
<event>
 5    1  0.1533416E-008  0.3809965E+03  0.7957747E-01  0.3446831E+00
         13   -1    0    0    0    0  0.00000000000E+00  0.00000000000E+00  0.14999999963E+04  0.15000000000E+04  0.10566000000E+00 0. -1.
        994   -1    0    0    0    0 -0.00000000000E+00 -0.00000000000E+00  0.11368683772E-12  0.17120000000E+03  0.17120000000E+03 0.  0.
         13    1    1    2    0    0  0.30235018212E+00 -0.22973047991E+02  0.67943466958E+02  0.71722926711E+02  0.10566000000E+00 0. -1.
        994    1    1    2    0    0 -0.19287490875E+01  0.25606722728E+02  0.58312306286E+01  0.17321335853E+03  0.17120000000E+03 0.  0.
        998    1    1    2    0    0  0.16263989054E+01 -0.26336747370E+01  0.14262252987E+04  0.14262637148E+04  0.10000000000E+02 0.  0.
</event>
<event>
 5    1  0.1533416E-008  0.3855443E+03  0.7957747E-01  0.3427367E+00
         13   -1    0    0    0    0  0.00000000000E+00  0.00000000000E+00  0.14999999963E+04  0.15000000000E+04  0.10566000000E+00 0. -1.
        994   -1    0    0    0    0 -0.00000000000E+00 -0.00000000000E+00  0.11368683772E-12  0.17120000000E+03  0.17120000000E+03 0.  0.
         13    1    1    2    0    0  0.11697774293E+02 -0.10465669761E+01  0.47498866699E+02  0.48929405551E+02  0.10566000000E+00 0. -1.
        994    1    1    2    0    0 -0.20152247545E+02 -0.18614730294E+01  0.27058713210E+01  0.17241328227E+03  0.17120000000E+03 0.  0.
        998    1    1    2    0    0  0.84544732521E+01  0.29080400055E+01  0.14497952583E+04  0.14498573122E+04  0.10000000000E+02 0. -1.
</event>
<event>
 5    1  0.1533416E-008  0.3738905E+03  0.7957747E-01  0.3478200E+00
         13   -1    0    0    0    0  0.00000000000E+00  0.00000000000E+00  0.14999999963E+04  0.15000000000E+04  0.10566000000E+00 0. -1.
        994   -1    0    0    0    0 -0.00000000000E+00 -0.00000000000E+00  0.11368683772E-12  0.17120000000E+03  0.17120000000E+03 0.  0.
         13    1    1    2    0    0 -0.87908616992E+01  0.22138450393E+02  0.16558544883E+02  0.29010115613E+02  0.10566000000E+00 0. -1.
        994    1    1    2    0    0 -0.14781763202E+02 -0.15860299988E+02  0.14678681865E+02  0.17319051169E+03  0.17120000000E+03 0.  0.
        998    1    1    2    0    0  0.23572624901E+02 -0.62781504045E+01  0.14687627695E+04  0.14689993727E+04  0.10000000000E+02 0. -1.
</event>
<event>
 5    1  0.1533416E-008  0.3734406E+03  0.7957747E-01  0.3480226E+00
         13   -1    0    0    0    0  0.00000000000E+00  0.00000000000E+00  0.14999999963E+04  0.15000000000E+04  0.10566000000E+00 0. -1.
        994   -1    0    0    0    0 -0.00000000000E+00 -0.00000000000E+00  0.11368683772E-12  0.17120000000E+03  0.17120000000E+03 0.  0.
         13    1    1    2    0    0  0.22945516627E+02  0.56439660842E+01  0.32949256225E+02  0.40546463918E+02  0.10566000000E+00 0. -1.
        994    1    1    2    0    0 -0.37360380631E+02  0.25758557801E+02  0.14551542940E+02  0.17770900017E+03  0.17120000000E+03 0.  0.
        998    1    1    2    0    0  0.14414864004E+02 -0.31402523885E+02  0.14524991971E+04  0.14529445359E+04  0.10000000000E+02 0. -1.
</event>
<event>
 5    1  0.1533416E-008  0.3703413E+03  0.7957747E-01  0.3494324E+00
         13   -1    0    0    0    0  0.00000000000E+00  0.00000000000E+00  0.14999999963E+04  0.15000000000E+04  0.10566000000E+00 0.  1.
        994   -1    0    0    0    0 -0.00000000000E+00 -0.00000000000E+00  0.11368683772E-12  0.17120000000E+03  0.17120000000E+03 0.  0.
         13    1    1    2    0    0 -0.67268905419E+02  0.49086049420E+02  0.30542167996E+03  0.31657062346E+03  0.10566000000E+00 0.  1.
        994    1    1    2    0    0  0.69809636444E+02 -0.41494112541E+02  0.32225288726E+02  0.19220576461E+03  0.17120000000E+03 0.  0.
        998    1    1    2    0    0 -0.25407310249E+01 -0.75919368791E+01  0.11623530276E+04  0.11624236119E+04  0.10000000000E+02 0.  1.
</event>
<event>
 5    1  0.1533416E-008  0.3840364E+03  0.7957747E-01  0.3433769E+00
         13   -1    0    0    0    0  0.00000000000E+00  0.00000000000E+00  0.14999999963E+04  0.15000000000E+04  0.10566000000E+00 0. -1.
        994   -1    0    0    0    0 -0.00000000000E+00 -0.00000000000E+00  0.11368683772E-12  0.17120000000E+03  0.17120000000E+03 0.  0.
         13    1    1    2    0    0  0.12414614757E+02 -0.22915114707E+02  0.14015090208E+03  0.14255353963E+03  0.10566000000E+00 0. -1.
        994    1    1    2    0    0 -0.27659199086E+02  0.22397170287E+02  0.62991818221E+01  0.17497366723E+03  0.17120000000E+03 0.  0.
        998    1    1    2    0    0  0.15244584329E+02  0.51794442023E+00  0.13535499124E+04  0.13536727931E+04  0.10000000000E+02 0. -1.
</event>
<event>
 5    1  0.1533416E-008  0.3808070E+03  0.7957747E-01  0.3447652E+00
         13   -1    0    0    0    0  0.00000000000E+00  0.00000000000E+00  0.14999999963E+04  0.15000000000E+04  0.10566000000E+00 0. -1.
        994   -1    0    0    0    0 -0.00000000000E+00 -0.00000000000E+00  0.11368683772E-12  0.17120000000E+03  0.17120000000E+03 0.  0.
         13    1    1    2    0    0 -0.19039271437E+02 -0.35105535637E+02  0.20845415126E+03  0.21224522805E+03  0.10566000000E+00 0. -1.
        994    1    1    2    0    0  0.14820156347E+02  0.21099760568E+02  0.59460600719E+01  0.17323288533E+03  0.17120000000E+03 0.  0.
        998    1    1    2    0    0  0.42191150901E+01  0.14005775069E+02  0.12855997849E+04  0.12857218866E+04  0.10000000000E+02 0. -1.
</event>
<event>
 5    1  0.1533416E-008  0.3805209E+03  0.7957747E-01  0.3448894E+00
         13   -1    0    0    0    0  0.00000000000E+00  0.00000000000E+00  0.14999999963E+04  0.15000000000E+04  0.10566000000E+00 0.  1.
        994   -1    0    0    0    0 -0.00000000000E+00 -0.00000000000E+00  0.11368683772E-12  0.17120000000E+03  0.17120000000E+03 0.  0.
         13    1    1    2    0    0  0.49385024731E+02 -0.16316843009E+02  0.29523244205E+03  0.29977879518E+03  0.10566000000E+00 0.  1.
        994    1    1    2    0    0 -0.45155933467E+02  0.14301245716E+02  0.11394217748E+02  0.17799677569E+03  0.17120000000E+03 0.  0.
        998    1    1    2    0    0 -0.42290912636E+01  0.20155972936E+01  0.11933733365E+04  0.11934244291E+04  0.10000000000E+02 0.  1.
</event>
<event>
 5    1  0.1533416E-008  0.3857760E+03  0.7957747E-01  0.3426388E+00
         13   -1    0    0    0    0  0.00000000000E+00  0.00000000000E+00  0.14999999963E+04  0.15000000000E+04  0.10566000000E+00 0.  1.
        994   -1    0    0    0    0 -0.00000000000E+00 -0.00000000000E+00  0.11368683772E-12  0.17120000000E+03  0.17120000000E+03 0.  0.
         13    1    1    2    0    0 -0.10265647902E+02 -0.85012821494E+01  0.71794286235E+02  0.73021134099E+02  0.10566000000E+00 0.  1.
        994    1    1    2    0    0  0.78061040911E+01  0.47602113722E+01  0.15196194086E+01  0.17145070463E+03  0.17120000000E+03 0.  0.
        998    1    1    2    0    0  0.24595438104E+01  0.37410707773E+01  0.14266860906E+04  0.14267281613E+04  0.10000000000E+02 0.  1.
</event>
<event>
 5    1  0.1533416E-008  0.3843318E+03  0.7957747E-01  0.3432511E+00
         13   -1    0    0    0    0  0.00000000000E+00  0.00000000000E+00  0.14999999963E+04  0.15000000000E+04  0.10566000000E+00 0. -1.
        994   -1    0    0    0    0 -0.00000000000E+00 -0.00000000000E+00  0.11368683772E-12  0.17120000000E+03  0.17120000000E+03 0.  0.
         13    1    1    2    0    0  0.82121112641E+01  0.10428488783E+02  0.46336559478E+02  0.48200415538E+02  0.10566000000E+00 0. -1.
        994    1    1    2    0    0  0.34699252315E+01 -0.38688522190E+01  0.20512652248E+01  0.17129114422E+03  0.17120000000E+03 0.  0.
        998    1    1    2    0    0 -0.11682036496E+02 -0.65596365639E+01  0.14516121716E+04  0.14517084402E+04  0.10000000000E+02 0. -1.
</event>
<event>
 5    1  0.1533416E-008  0.3793384E+03  0.7957747E-01  0.3454044E+00
         13   -1    0    0    0    0  0.00000000000E+00  0.00000000000E+00  0.14999999963E+04  0.15000000000E+04  0.10566000000E+00 0.  1.
        994   -1    0    0    0    0 -0.00000000000E+00 -0.00000000000E+00  0.11368683772E-12  0.17120000000E+03  0.17120000000E+03 0.  0.
         13    1    1    2    0    0  0.50419406064E+02 -0.60309971412E+01  0.24369082204E+03  0.24892512398E+03  0.10566000000E+00 0.  1.
        994    1    1    2    0    0 -0.49386189855E+02  0.89004100315E+01  0.12950762709E+02  0.17887251131E+03  0.17120000000E+03 0.  0.
        998    1    1    2    0    0 -0.10332162093E+01 -0.28694128903E+01  0.12433584115E+04  0.12434023647E+04  0.10000000000E+02 0.  0.
</event>
<event>
 5    1  0.1533416E-008  0.3834686E+03  0.7957747E-01  0.3436193E+00
         13   -1    0    0    0    0  0.00000000000E+00  0.00000000000E+00  0.14999999963E+04  0.15000000000E+04  0.10566000000E+00 0. -1.
        994   -1    0    0    0    0 -0.00000000000E+00 -0.00000000000E+00  0.11368683772E-12  0.17120000000E+03  0.17120000000E+03 0.  0.
         13    1    1    2    0    0 -0.39782512587E+01 -0.19846660283E+02  0.95825090411E+02  0.97939652459E+02  0.10566000000E+00 0. -1.
        994    1    1    2    0    0  0.59288435492E+01 -0.66856299750E+01  0.26563276268E+01  0.17145362321E+03  0.17120000000E+03 0.  0.
        998    1    1    2    0    0 -0.19505922905E+01  0.26532290258E+02  0.14015185782E+04  0.14018067243E+04  0.10000000000E+02 0. -1.
</event>
<event>
 5    1  0.1533416E-008  0.3779502E+03  0.7957747E-01  0.3460133E+00
         13   -1    0    0    0    0  0.00000000000E+00  0.00000000000E+00  0.14999999963E+04  0.15000000000E+04  0.10566000000E+00 0.  1.
        994   -1    0    0    0    0 -0.00000000000E+00 -0.00000000000E+00  0.11368683772E-12  0.17120000000E+03  0.17120000000E+03 0.  0.
         13    1    1    2    0    0  0.41495272955E+02  0.20910839143E+01  0.15119041011E+03  0.15679534937E+03  0.10566000000E+00 0.  1.
        994    1    1    2    0    0 -0.40229223411E+02  0.52053831564E+01  0.10729792646E+02  0.17626699884E+03  0.17120000000E+03 0.  0.
        998    1    1    2    0    0 -0.12660495442E+01 -0.72964670707E+01  0.13380797935E+04  0.13381376518E+04  0.10000000000E+02 0.  1.
</event>
<event>
 5    1  0.1533416E-008  0.3847128E+03  0.7957747E-01  0.3430891E+00
         13   -1    0    0    0    0  0.00000000000E+00  0.00000000000E+00  0.14999999963E+04  0.15000000000E+04  0.10566000000E+00 0.  1.
        994   -1    0    0    0    0 -0.00000000000E+00 -0.00000000000E+00  0.11368683772E-12  0.17120000000E+03  0.17120000000E+03 0.  0.
         13    1    1    2    0    0  0.70664800525E+01 -0.12897387146E+02  0.57087590149E+02  0.58951521172E+02  0.10566000000E+00 0.  1.
        994    1    1    2    0    0 -0.77683211519E+01  0.19690028903E+02  0.32490235149E+01  0.17253417112E+03  0.17120000000E+03 0.  0.
        998    1    1    2    0    0  0.70184109943E+00 -0.67926417572E+01  0.14396633826E+04  0.14397143077E+04  0.10000000000E+02 0.  1.
</event>
<event>
 5    1  0.1533416E-008  0.3816519E+03  0.7957747E-01  0.3443997E+00
         13   -1    0    0    0    0  0.00000000000E+00  0.00000000000E+00  0.14999999963E+04  0.15000000000E+04  0.10566000000E+00 0. -1.
        994   -1    0    0    0    0 -0.00000000000E+00 -0.00000000000E+00  0.11368683772E-12  0.17120000000E+03  0.17120000000E+03 0.  0.
         13    1    1    2    0    0 -0.70735370234E+01  0.30606002804E+02  0.12943998357E+03  0.13319715779E+03  0.10566000000E+00 0. -1.
        994    1    1    2    0    0  0.25095593970E+01 -0.40739548474E+02  0.88605752586E+01  0.17622133382E+03  0.17120000000E+03 0.  0.
        998    1    1    2    0    0  0.45639776264E+01  0.10133545670E+02  0.13616994375E+04  0.13617815084E+04  0.10000000000E+02 0. -1.
</event>
<event>
 5    1  0.1533416E-008  0.3770712E+03  0.7957747E-01  0.3464011E+00
         13   -1    0    0    0    0  0.00000000000E+00  0.00000000000E+00  0.14999999963E+04  0.15000000000E+04  0.10566000000E+00 0. -1.
        994   -1    0    0    0    0 -0.00000000000E+00 -0.00000000000E+00  0.11368683772E-12  0.17120000000E+03  0.17120000000E+03 0.  0.
         13    1    1    2    0    0 -0.39659300884E+02 -0.23435689155E+02  0.21218486566E+03  0.21712788870E+03  0.10566000000E+00 0. -1.
        994    1    1    2    0    0  0.47166730078E+01  0.76840383261E+01  0.58934042991E+01  0.17153851947E+03  0.17120000000E+03 0.  0.
        998    1    1    2    0    0  0.34942627876E+02  0.15751650829E+02  0.12819217263E+04  0.12825335918E+04  0.10000000000E+02 0. -1.
</event>
<event>
 5    1  0.1533416E-008  0.3837723E+03  0.7957747E-01  0.3434896E+00
         13   -1    0    0    0    0  0.00000000000E+00  0.00000000000E+00  0.14999999963E+04  0.15000000000E+04  0.10566000000E+00 0. -1.
        994   -1    0    0    0    0 -0.00000000000E+00 -0.00000000000E+00  0.11368683772E-12  0.17120000000E+03  0.17120000000E+03 0.  0.
         13    1    1    2    0    0  0.25632702140E+01  0.15401160042E+02  0.53109596707E+02  0.55357081853E+02  0.10566000000E+00 0. -1.
        994    1    1    2    0    0 -0.26362590346E+01 -0.12840785317E+02  0.28084667420E+01  0.17172409008E+03  0.17120000000E+03 0.  0.
        998    1    1    2    0    0  0.72988820574E-01 -0.25603747247E+01  0.14440819328E+04  0.14441188281E+04  0.10000000000E+02 0. -1.
</event>
<event>
 5    1  0.1533416E-008  0.3702267E+03  0.7957747E-01  0.3494850E+00
         13   -1    0    0    0    0  0.00000000000E+00  0.00000000000E+00  0.14999999963E+04  0.15000000000E+04  0.10566000000E+00 0.  1.
        994   -1    0    0    0    0 -0.00000000000E+00 -0.00000000000E+00  0.11368683772E-12  0.17120000000E+03  0.17120000000E+03 0.  0.
         13    1    1    2    0    0  0.94497013309E+02  0.85323795845E+02  0.42202882916E+03  0.44081535757E+03  0.10566000000E+00 0.  1.
        994    1    1    2    0    0 -0.10345268734E+03 -0.10710407159E+03  0.93221593986E+02  0.24530276447E+03  0.17120000000E+03 0.  0.
        998    1    1    2    0    0  0.89556740351E+01  0.21780275746E+02  0.98474957313E+03  0.98508187796E+03  0.10000000000E+02 0.  1.
</event>
<event>
 5    1  0.1533416E-008  0.3758592E+03  0.7957747E-01  0.3469389E+00
         13   -1    0    0    0    0  0.00000000000E+00  0.00000000000E+00  0.14999999963E+04  0.15000000000E+04  0.10566000000E+00 0. -1.
        994   -1    0    0    0    0 -0.00000000000E+00 -0.00000000000E+00  0.11368683772E-12  0.17120000000E+03  0.17120000000E+03 0.  0.
         13    1    1    2    0    0  0.40645568645E+02  0.36030481865E+02  0.20007324442E+03  0.20731515181E+03  0.10566000000E+00 0. -1.
        994    1    1    2    0    0 -0.34019399955E+02 -0.48742110633E+02  0.18308718298E+02  0.18214763816E+03  0.17120000000E+03 0.  0.
        998    1    1    2    0    0 -0.66261686902E+01  0.12711628767E+02  0.12816180336E+04  0.12817372100E+04  0.10000000000E+02 0. -1.
</event>
<event>
 5    1  0.1533416E-008  0.3778157E+03  0.7957747E-01  0.3460725E+00
         13   -1    0    0    0    0  0.00000000000E+00  0.00000000000E+00  0.14999999963E+04  0.15000000000E+04  0.10566000000E+00 0.  1.
        994   -1    0    0    0    0 -0.00000000000E+00 -0.00000000000E+00  0.11368683772E-12  0.17120000000E+03  0.17120000000E+03 0.  0.
         13    1    1    2    0    0  0.32024989732E+02  0.19517001784E+02  0.14561027101E+03  0.15036248041E+03  0.10566000000E+00 0.  1.
        994    1    1    2    0    0 -0.50223655635E+01 -0.22378844190E+01  0.53416481233E+01  0.17137154223E+03  0.17120000000E+03 0.  0.
        998    1    1    2    0    0 -0.27002624168E+02 -0.17279117365E+02  0.13490480771E+04  0.13494659774E+04  0.10000000000E+02 0.  1.
</event>
<event>
 5    1  0.1533416E-008  0.3823290E+03  0.7957747E-01  0.3441080E+00
         13   -1    0    0    0    0  0.00000000000E+00  0.00000000000E+00  0.14999999963E+04  0.15000000000E+04  0.10566000000E+00 0. -1.
        994   -1    0    0    0    0 -0.00000000000E+00 -0.00000000000E+00  0.11368683772E-12  0.17120000000E+03  0.17120000000E+03 0.  0.
         13    1    1    2    0    0  0.69072864756E+01 -0.18216850592E+02  0.61766816426E+02  0.64766619701E+02  0.10566000000E+00 0. -1.
        994    1    1    2    0    0 -0.16883185843E+00  0.18312770671E+02  0.40754517426E+01  0.17222495574E+03  0.17120000000E+03 0.  0.
        998    1    1    2    0    0 -0.67384546172E+01 -0.95920079582E-01  0.14341577281E+04  0.14342084246E+04  0.10000000000E+02 0. -1.
</event>
<event>
 5    1  0.1533416E-008  0.3818768E+03  0.7957747E-01  0.3443027E+00
         13   -1    0    0    0    0  0.00000000000E+00  0.00000000000E+00  0.14999999963E+04  0.15000000000E+04  0.10566000000E+00 0.  1.
        994   -1    0    0    0    0 -0.00000000000E+00 -0.00000000000E+00  0.11368683772E-12  0.17120000000E+03  0.17120000000E+03 0.  0.
         13    1    1    2    0    0 -0.10935673570E+02 -0.27205921557E+02  0.13808080568E+03  0.14115973642E+03  0.10566000000E+00 0.  1.
        994    1    1    2    0    0  0.23469203671E+02  0.50043749018E+01  0.51042341592E+01  0.17294895344E+03  0.17120000000E+03 0.  0.
        998    1    1    2    0    0 -0.12533530100E+02  0.22201546656E+02  0.13568149564E+04  0.13570913101E+04  0.10000000000E+02 0.  1.
</event>
<event>
 5    1  0.1533416E-008  0.3830741E+03  0.7957747E-01  0.3437881E+00
         13   -1    0    0    0    0  0.00000000000E+00  0.00000000000E+00  0.14999999963E+04  0.15000000000E+04  0.10566000000E+00 0.  1.
        994   -1    0    0    0    0 -0.00000000000E+00 -0.00000000000E+00  0.11368683772E-12  0.17120000000E+03  0.17120000000E+03 0.  0.
         13    1    1    2    0    0  0.34661958819E+01 -0.21617803284E+02  0.94968865079E+02  0.97459942701E+02  0.10566000000E+00 0.  1.
        994    1    1    2    0    0  0.11790793554E+01  0.85705764066E+01  0.28370499833E+01  0.17144192562E+03  0.17120000000E+03 0.  0.
        998    1    1    2    0    0 -0.46452752373E+01  0.13047226877E+02  0.14021940812E+04  0.14022981317E+04  0.10000000000E+02 0.  1.
</event>
<event>
 5    1  0.1533416E-008  0.3728850E+03  0.7957747E-01  0.3482736E+00
         13   -1    0    0    0    0  0.00000000000E+00  0.00000000000E+00  0.14999999963E+04  0.15000000000E+04  0.10566000000E+00 0.  1.
        994   -1    0    0    0    0 -0.00000000000E+00 -0.00000000000E+00  0.11368683772E-12  0.17120000000E+03  0.17120000000E+03 0.  0.
         13    1    1    2    0    0 -0.15778758590E+02  0.14618070629E+02  0.25487233000E+02  0.33350673481E+02  0.10566000000E+00 0.  1.
        994    1    1    2    0    0  0.45885886300E+02  0.53553799608E+01  0.15111079473E+02  0.17796623101E+03  0.17120000000E+03 0.  0.
        998    1    1    2    0    0 -0.30107127709E+02 -0.19973450590E+02  0.14594016838E+04  0.14598830955E+04  0.10000000000E+02 0.  1.
</event>
<event>
 5    1  0.1533416E-008  0.3630627E+03  0.7957747E-01  0.3528394E+00
         13   -1    0    0    0    0  0.00000000000E+00  0.00000000000E+00  0.14999999963E+04  0.15000000000E+04  0.10566000000E+00 0. -1.
        994   -1    0    0    0    0 -0.00000000000E+00 -0.00000000000E+00  0.11368683772E-12  0.17120000000E+03  0.17120000000E+03 0.  0.
         13    1    1    2    0    0 -0.10630992258E+03 -0.28053570766E+03  0.79162475246E+03  0.84656473042E+03  0.10566000000E+00 0. -1.
        994    1    1    2    0    0  0.10898687548E+03  0.29314386703E+03  0.49178645329E+03  0.60743297691E+03  0.17120000000E+03 0.  0.
        998    1    1    2    0    0 -0.26769528957E+01 -0.12608159367E+02  0.21658879053E+03  0.21720229267E+03  0.10000000000E+02 0.  1.
</event>
<event>
 5    1  0.1533416E-008  0.3845855E+03  0.7957747E-01  0.3431432E+00
         13   -1    0    0    0    0  0.00000000000E+00  0.00000000000E+00  0.14999999963E+04  0.15000000000E+04  0.10566000000E+00 0.  1.
        994   -1    0    0    0    0 -0.00000000000E+00 -0.00000000000E+00  0.11368683772E-12  0.17120000000E+03  0.17120000000E+03 0.  0.
         13    1    1    2    0    0 -0.11755255949E+02  0.81070353093E+01  0.53385277483E+02  0.55262184900E+02  0.10566000000E+00 0.  1.
        994    1    1    2    0    0  0.26927841727E+02  0.10003263360E+02  0.45581742564E+01  0.17365307625E+03  0.17120000000E+03 0.  0.
        998    1    1    2    0    0 -0.15172585778E+02 -0.18110298669E+02  0.14420565445E+04  0.14422847389E+04  0.10000000000E+02 0.  1.
</event>
<event>
 5    1  0.1533416E-008  0.3763665E+03  0.7957747E-01  0.3467134E+00
         13   -1    0    0    0    0  0.00000000000E+00  0.00000000000E+00  0.14999999963E+04  0.15000000000E+04  0.10566000000E+00 0.  1.
        994   -1    0    0    0    0 -0.00000000000E+00 -0.00000000000E+00  0.11368683772E-12  0.17120000000E+03  0.17120000000E+03 0.  0.
         13    1    1    2    0    0  0.63591426471E+02  0.49427328929E+02  0.19446860372E+03  0.21048748030E+03  0.10566000000E+00 0.  1.
        994    1    1    2    0    0 -0.43030961476E+02 -0.73567831300E+02  0.40801464428E+02  0.19554561858E+03  0.17120000000E+03 0.  0.
        998    1    1    2    0    0 -0.20560464995E+02  0.24140502371E+02  0.12647299281E+04  0.12651669011E+04  0.10000000000E+02 0.  1.
</event>
<event>
 5    1  0.1533416E-008  0.3794976E+03  0.7957747E-01  0.3453349E+00
         13   -1    0    0    0    0  0.00000000000E+00  0.00000000000E+00  0.14999999963E+04  0.15000000000E+04  0.10566000000E+00 0. -1.
        994   -1    0    0    0    0 -0.00000000000E+00 -0.00000000000E+00  0.11368683772E-12  0.17120000000E+03  0.17120000000E+03 0.  0.
         13    1    1    2    0    0  0.12490976622E+02 -0.16725243248E+02  0.51312178679E+02  0.55395930387E+02  0.10566000000E+00 0. -1.
        994    1    1    2    0    0  0.13812544211E+02  0.50675318836E+01  0.51121274515E+01  0.17190706822E+03  0.17120000000E+03 0.  0.
        998    1    1    2    0    0 -0.26303520833E+02  0.11657711365E+02  0.14435756901E+04  0.14438970014E+04  0.10000000000E+02 0. -1.
</event>
<event>
 5    1  0.1533416E-008  0.3989286E+03  0.7957747E-01  0.3372665E+00
         13   -1    0    0    0    0  0.00000000000E+00  0.00000000000E+00  0.14999999963E+04  0.15000000000E+04  0.10566000000E+00 0.  1.
        994   -1    0    0    0    0 -0.00000000000E+00 -0.00000000000E+00  0.11368683772E-12  0.17120000000E+03  0.17120000000E+03 0.  0.
         13    1    1    2    0    0  0.95745270721E+02 -0.88242429135E+02  0.27831682336E+03  0.30726885377E+03  0.10566000000E+00 0.  1.
        994    1    1    2    0    0 -0.84980709913E+02  0.59011496170E+02  0.70216353925E+02  0.21199965589E+03  0.17120000000E+03 0.  0.
        998    1    1    2    0    0 -0.10764560808E+02  0.29230932965E+02  0.11514668190E+04  0.11519314903E+04  0.10000000000E+02 0.  1.
</event>
<event>
 5    1  0.1533416E-008  0.3806049E+03  0.7957747E-01  0.3448529E+00
         13   -1    0    0    0    0  0.00000000000E+00  0.00000000000E+00  0.14999999963E+04  0.15000000000E+04  0.10566000000E+00 0. -1.
        994   -1    0    0    0    0 -0.00000000000E+00 -0.00000000000E+00  0.11368683772E-12  0.17120000000E+03  0.17120000000E+03 0.  0.
         13    1    1    2    0    0 -0.10188408025E+02 -0.10479908906E+02  0.25609986853E+02  0.29487535323E+02  0.10566000000E+00 0. -1.
        994    1    1    2    0    0  0.18490285614E+02  0.98113061418E+01  0.52912347671E+01  0.17255604758E+03  0.17120000000E+03 0.  0.
        998    1    1    2    0    0 -0.83018775890E+01  0.66860276456E+00  0.14690987747E+04  0.14691564171E+04  0.10000000000E+02 0. -1.
</event>
<event>
 5    1  0.1533416E-008  0.3832700E+03  0.7957747E-01  0.3437043E+00
         13   -1    0    0    0    0  0.00000000000E+00  0.00000000000E+00  0.14999999963E+04  0.15000000000E+04  0.10566000000E+00 0. -1.
        994   -1    0    0    0    0 -0.00000000000E+00 -0.00000000000E+00  0.11368683772E-12  0.17120000000E+03  0.17120000000E+03 0.  0.
         13    1    1    2    0    0 -0.18166991077E+02 -0.41222335847E+01  0.68087540480E+02  0.70590060965E+02  0.10566000000E+00 0. -1.
        994    1    1    2    0    0  0.14199368776E+02  0.25461969138E+01  0.31800269473E+01  0.17183613637E+03  0.17120000000E+03 0.  0.
        998    1    1    2    0    0  0.39676223005E+01  0.15760366710E+01  0.14287324289E+04  0.14287738027E+04  0.10000000000E+02 0. -1.
</event>
<event>
 5    1  0.1533416E-008  0.3839757E+03  0.7957747E-01  0.3434028E+00
         13   -1    0    0    0    0  0.00000000000E+00  0.00000000000E+00  0.14999999963E+04  0.15000000000E+04  0.10566000000E+00 0.  1.
        994   -1    0    0    0    0 -0.00000000000E+00 -0.00000000000E+00  0.11368683772E-12  0.17120000000E+03  0.17120000000E+03 0.  0.
         13    1    1    2    0    0 -0.11978640495E+02  0.14717213085E+01  0.33532850419E+02  0.35638701056E+02  0.10566000000E+00 0.  1.
        994    1    1    2    0    0  0.76724067552E+01 -0.98572849677E+00  0.23370135720E+01  0.17139060394E+03  0.17120000000E+03 0.  0.
        998    1    1    2    0    0  0.43062337402E+01 -0.48599281177E+00  0.14641301323E+04  0.14641706950E+04  0.10000000000E+02 0.  1.
</event>
<event>
 5    1  0.1533416E-008  0.3760629E+03  0.7957747E-01  0.3468483E+00
         13   -1    0    0    0    0  0.00000000000E+00  0.00000000000E+00  0.14999999963E+04  0.15000000000E+04  0.10566000000E+00 0.  1.
        994   -1    0    0    0    0 -0.00000000000E+00 -0.00000000000E+00  0.11368683772E-12  0.17120000000E+03  0.17120000000E+03 0.  0.
         13    1    1    2    0    0 -0.17582328438E+02  0.64660299431E+02  0.31106226231E+03  0.31819779194E+03  0.10566000000E+00 0.  1.
        994    1    1    2    0    0  0.26038233562E+02 -0.53493430394E+02  0.18218220445E+02  0.18215619742E+03  0.17120000000E+03 0.  0.
        998    1    1    2    0    0 -0.84559051244E+01 -0.11166869037E+02  0.11707195135E+04  0.11708460106E+04  0.10000000000E+02 0.  1.
</event>
<event>
 5    1  0.1533416E-008  0.3800277E+03  0.7957747E-01  0.3451038E+00
         13   -1    0    0    0    0  0.00000000000E+00  0.00000000000E+00  0.14999999963E+04  0.15000000000E+04  0.10566000000E+00 0. -1.
        994   -1    0    0    0    0 -0.00000000000E+00 -0.00000000000E+00  0.11368683772E-12  0.17120000000E+03  0.17120000000E+03 0.  0.
         13    1    1    2    0    0 -0.16890960944E+03  0.29294109553E+01  0.72946046407E+03  0.74876673097E+03  0.10566000000E+00 0. -1.
        994    1    1    2    0    0  0.21225138005E+03  0.27040536115E+02  0.17644027047E+03  0.32591785463E+03  0.17120000000E+03 0.  0.
        998    1    1    2    0    0 -0.43341770613E+02 -0.29969947070E+02  0.59409926174E+03  0.59651541440E+03  0.10000000000E+02 0.  1.
</event>
<event>
 5    1  0.1533416E-008  0.3710674E+03  0.7957747E-01  0.3491000E+00
         13   -1    0    0    0    0  0.00000000000E+00  0.00000000000E+00  0.14999999963E+04  0.15000000000E+04  0.10566000000E+00 0. -1.
        994   -1    0    0    0    0 -0.00000000000E+00 -0.00000000000E+00  0.11368683772E-12  0.17120000000E+03  0.17120000000E+03 0.  0.
         13    1    1    2    0    0 -0.11181603324E+02  0.56221924257E+01  0.49210632440E+01  0.13448618072E+02  0.10566000000E+00 0. -1.
        994    1    1    2    0    0  0.12742487155E+02 -0.63380186540E+01  0.94102563407E+01  0.17204805836E+03  0.17120000000E+03 0.  0.
        998    1    1    2    0    0 -0.15608838312E+01  0.71582622825E+00  0.14856686767E+04  0.14857033236E+04  0.10000000000E+02 0. -1.
</event>
<event>
 5    1  0.1533416E-008  0.3842619E+03  0.7957747E-01  0.3432808E+00
         13   -1    0    0    0    0  0.00000000000E+00  0.00000000000E+00  0.14999999963E+04  0.15000000000E+04  0.10566000000E+00 0.  1.
        994   -1    0    0    0    0 -0.00000000000E+00 -0.00000000000E+00  0.11368683772E-12  0.17120000000E+03  0.17120000000E+03 0.  0.
         13    1    1    2    0    0  0.36310452831E+01 -0.98968036419E+01  0.27786974072E+02  0.29719661914E+02  0.10566000000E+00 0.  1.
        994    1    1    2    0    0  0.12525648018E+01  0.33037916759E+01  0.20381726543E+01  0.17124858570E+03  0.17120000000E+03 0.  0.
        998    1    1    2    0    0 -0.48836100849E+01  0.65930119660E+01  0.14701748496E+04  0.14702317524E+04  0.10000000000E+02 0.  1.
</event>
<event>
 5    1  0.1533416E-008  0.3792685E+03  0.7957747E-01  0.3454350E+00
         13   -1    0    0    0    0  0.00000000000E+00  0.00000000000E+00  0.14999999963E+04  0.15000000000E+04  0.10566000000E+00 0. -1.
        994   -1    0    0    0    0 -0.00000000000E+00 -0.00000000000E+00  0.11368683772E-12  0.17120000000E+03  0.17120000000E+03 0.  0.
         13    1    1    2    0    0 -0.35052204839E+02 -0.30970029508E+02  0.63313184072E+02  0.78717026323E+02  0.10566000000E+00 0. -1.
        994    1    1    2    0    0  0.16444260722E+02  0.27390750240E+02  0.19623274711E+02  0.17525746723E+03  0.17120000000E+03 0.  0.
        998    1    1    2    0    0  0.18607944117E+02  0.35792792674E+01  0.14170635375E+04  0.14172255064E+04  0.10000000000E+02 0. -1.
</event>
<event>
 5    1  0.1533416E-008  0.3836582E+03  0.7957747E-01  0.3435383E+00
         13   -1    0    0    0    0  0.00000000000E+00  0.00000000000E+00  0.14999999963E+04  0.15000000000E+04  0.10566000000E+00 0. -1.
        994   -1    0    0    0    0 -0.00000000000E+00 -0.00000000000E+00  0.11368683772E-12  0.17120000000E+03  0.17120000000E+03 0.  0.
         13    1    1    2    0    0  0.21037800155E+02  0.27301484306E+01  0.10193577152E+03  0.10411990888E+03  0.10566000000E+00 0. -1.
        994    1    1    2    0    0 -0.67320344659E+01  0.89997130327E+00  0.24501892890E+01  0.17135219189E+03  0.17120000000E+03 0.  0.
        998    1    1    2    0    0 -0.14305765689E+02 -0.36301197339E+01  0.13956140355E+04  0.13957278992E+04  0.10000000000E+02 0. -1.
</event>
<event>
 5    1  0.1533416E-008  0.3833983E+03  0.7957747E-01  0.3436494E+00
         13   -1    0    0    0    0  0.00000000000E+00  0.00000000000E+00  0.14999999963E+04  0.15000000000E+04  0.10566000000E+00 0.  1.
        994   -1    0    0    0    0 -0.00000000000E+00 -0.00000000000E+00  0.11368683772E-12  0.17120000000E+03  0.17120000000E+03 0.  0.
         13    1    1    2    0    0  0.11475320966E+02  0.13142822641E+02  0.69741138479E+02  0.71890571973E+02  0.10566000000E+00 0.  1.
        994    1    1    2    0    0 -0.45295868358E+01  0.16522424959E+02  0.33983398586E+01  0.17208862948E+03  0.17120000000E+03 0.  0.
        998    1    1    2    0    0 -0.69457341306E+01 -0.29665247600E+02  0.14268605179E+04  0.14272207985E+04  0.10000000000E+02 0.  1.
</event>
<event>
 5    1  0.1533416E-008  0.3819431E+03  0.7957747E-01  0.3442741E+00
         13   -1    0    0    0    0  0.00000000000E+00  0.00000000000E+00  0.14999999963E+04  0.15000000000E+04  0.10566000000E+00 0.  1.
        994   -1    0    0    0    0 -0.00000000000E+00 -0.00000000000E+00  0.11368683772E-12  0.17120000000E+03  0.17120000000E+03 0.  0.
         13    1    1    2    0    0  0.13268036798E+02  0.67562010286E+01  0.35173443977E+02  0.38195148619E+02  0.10566000000E+00 0.  1.
        994    1    1    2    0    0 -0.24213981156E+01  0.35950920144E+01  0.32178987134E+01  0.17128509196E+03  0.17120000000E+03 0.  0.
        998    1    1    2    0    0 -0.10846638682E+02 -0.10351293043E+02  0.14616086536E+04  0.14617197594E+04  0.10000000000E+02 0.  1.
</event>
<event>
 5    1  0.1533416E-008  0.3763878E+03  0.7957747E-01  0.3467039E+00
         13   -1    0    0    0    0  0.00000000000E+00  0.00000000000E+00  0.14999999963E+04  0.15000000000E+04  0.10566000000E+00 0. -1.
        994   -1    0    0    0    0 -0.00000000000E+00 -0.00000000000E+00  0.11368683772E-12  0.17120000000E+03  0.17120000000E+03 0.  0.
         13    1    1    2    0    0  0.77454897290E+02  0.14787126608E+03  0.97951750624E+03  0.99363963721E+03  0.10566000000E+00 0. -1.
        994    1    1    2    0    0 -0.12116553854E+03 -0.12536852047E+03  0.11690667115E+03  0.27087813388E+03  0.17120000000E+03 0.  0.
        998    1    1    2    0    0  0.43710641246E+02 -0.22502745610E+02  0.40357581889E+03  0.40668222891E+03  0.10000000000E+02 0. -1.
</event>
<event>
 5    1  0.1533416E-008  0.3765097E+03  0.7957747E-01  0.3466498E+00
         13   -1    0    0    0    0  0.00000000000E+00  0.00000000000E+00  0.14999999963E+04  0.15000000000E+04  0.10566000000E+00 0.  1.
        994   -1    0    0    0    0 -0.00000000000E+00 -0.00000000000E+00  0.11368683772E-12  0.17120000000E+03  0.17120000000E+03 0.  0.
         13    1    1    2    0    0 -0.12317688115E+02 -0.11822448862E+02  0.22525499590E+02  0.28264908162E+02  0.10566000000E+00 0.  1.
        994    1    1    2    0    0 -0.48395481001E+00  0.89944755929E+01  0.61799428975E+01  0.17154814630E+03  0.17120000000E+03 0.  0.
        998    1    1    2    0    0  0.12801642925E+02  0.28279732694E+01  0.14712945538E+04  0.14713869455E+04  0.10000000000E+02 0.  1.
</event>
<event>
 5    1  0.1533416E-008  0.3756264E+03  0.7957747E-01  0.3470426E+00
         13   -1    0    0    0    0  0.00000000000E+00  0.00000000000E+00  0.14999999963E+04  0.15000000000E+04  0.10566000000E+00 0.  1.
        994   -1    0    0    0    0 -0.00000000000E+00 -0.00000000000E+00  0.11368683772E-12  0.17120000000E+03  0.17120000000E+03 0.  0.
         13    1    1    2    0    0  0.44340202084E+02  0.72009243586E+02  0.44547559065E+03  0.45343124915E+03  0.10566000000E+00 0.  1.
        994    1    1    2    0    0 -0.26568166055E+02 -0.68985139739E+02  0.25125707915E+02  0.18816364726E+03  0.17120000000E+03 0.  0.
        998    1    1    2    0    0 -0.17772036029E+02 -0.30241038465E+01  0.10293986977E+04  0.10296051036E+04  0.10000000000E+02 0.  1.
</event>
<event>
 5    1  0.1533416E-008  0.3826444E+03  0.7957747E-01  0.3439724E+00
         13   -1    0    0    0    0  0.00000000000E+00  0.00000000000E+00  0.14999999963E+04  0.15000000000E+04  0.10566000000E+00 0. -1.
        994   -1    0    0    0    0 -0.00000000000E+00 -0.00000000000E+00  0.11368683772E-12  0.17120000000E+03  0.17120000000E+03 0.  0.
         13    1    1    2    0    0 -0.21322011997E+02  0.20258825661E+01  0.79091030516E+02  0.81939823455E+02  0.10566000000E+00 0. -1.
        994    1    1    2    0    0  0.17768326477E+02 -0.10593861870E+01  0.38548708727E+01  0.17216601219E+03  0.17120000000E+03 0.  0.
        998    1    1    2    0    0  0.35536855199E+01 -0.96649637915E+00  0.14170540949E+04  0.14170941644E+04  0.10000000000E+02 0. -1.
</event>
<event>
 5    1  0.1533416E-008  0.3692754E+03  0.7957747E-01  0.3499228E+00
         13   -1    0    0    0    0  0.00000000000E+00  0.00000000000E+00  0.14999999963E+04  0.15000000000E+04  0.10566000000E+00 0.  1.
        994   -1    0    0    0    0 -0.00000000000E+00 -0.00000000000E+00  0.11368683772E-12  0.17120000000E+03  0.17120000000E+03 0.  0.
         13    1    1    2    0    0  0.93159541355E+01 -0.12089458827E+02  0.76518652406E+01  0.17073494718E+02  0.10566000000E+00 0.  1.
        994    1    1    2    0    0  0.44685819699E+01  0.21650281810E+02  0.11344126203E+02  0.17299373436E+03  0.17120000000E+03 0.  0.
        998    1    1    2    0    0 -0.13784536105E+02 -0.95608229829E+01  0.14810040048E+04  0.14811327709E+04  0.10000000000E+02 0.  1.
</event>
<event>
 5    1  0.1533416E-008  0.3836912E+03  0.7957747E-01  0.3435242E+00
         13   -1    0    0    0    0  0.00000000000E+00  0.00000000000E+00  0.14999999963E+04  0.15000000000E+04  0.10566000000E+00 0. -1.
        994   -1    0    0    0    0 -0.00000000000E+00 -0.00000000000E+00  0.11368683772E-12  0.17120000000E+03  0.17120000000E+03 0.  0.
         13    1    1    2    0    0 -0.15518161149E+02  0.21586926641E+02  0.13770681781E+03  0.14024973284E+03  0.10566000000E+00 0. -1.
        994    1    1    2    0    0  0.12200505839E+02 -0.29164321667E+02  0.55890426531E+01  0.17418406184E+03  0.17120000000E+03 0.  0.
        998    1    1    2    0    0  0.33176553102E+01  0.75773950265E+01  0.13567041358E+04  0.13567662053E+04  0.10000000000E+02 0. -1.
</event>
<event>
 5    1  0.1533416E-008  0.3732154E+03  0.7957747E-01  0.3481243E+00
         13   -1    0    0    0    0  0.00000000000E+00  0.00000000000E+00  0.14999999963E+04  0.15000000000E+04  0.10566000000E+00 0. -1.
        994   -1    0    0    0    0 -0.00000000000E+00 -0.00000000000E+00  0.11368683772E-12  0.17120000000E+03  0.17120000000E+03 0.  0.
         13    1    1    2    0    0  0.19592423745E+02 -0.14069381366E+02  0.17609773703E+02  0.29865127726E+02  0.10566000000E+00 0. -1.
        994    1    1    2    0    0 -0.10000011877E+02  0.17004012635E+02  0.14026276694E+02  0.17290261167E+03  0.17120000000E+03 0.  0.
        998    1    1    2    0    0 -0.95924118682E+01 -0.29346312693E+01  0.14683639459E+04  0.14684322606E+04  0.10000000000E+02 0. -1.
</event>
<event>
 5    1  0.1533416E-008  0.3818818E+03  0.7957747E-01  0.3443006E+00
         13   -1    0    0    0    0  0.00000000000E+00  0.00000000000E+00  0.14999999963E+04  0.15000000000E+04  0.10566000000E+00 0.  1.
        994   -1    0    0    0    0 -0.00000000000E+00 -0.00000000000E+00  0.11368683772E-12  0.17120000000E+03  0.17120000000E+03 0.  0.
         13    1    1    2    0    0  0.16552812382E+02 -0.14475596228E+02  0.70218058995E+02  0.73580741074E+02  0.10566000000E+00 0.  1.
        994    1    1    2    0    0 -0.22379383540E+02  0.15586284382E+02  0.56611636615E+01  0.17345102433E+03  0.17120000000E+03 0.  0.
        998    1    1    2    0    0  0.58265711584E+01 -0.11106881534E+01  0.14241207736E+04  0.14241682346E+04  0.10000000000E+02 0.  1.
</event>
<event>
 5    1  0.1533416E-008  0.3772669E+03  0.7957747E-01  0.3463146E+00
         13   -1    0    0    0    0  0.00000000000E+00  0.00000000000E+00  0.14999999963E+04  0.15000000000E+04  0.10566000000E+00 0.  1.
        994   -1    0    0    0    0 -0.00000000000E+00 -0.00000000000E+00  0.11368683772E-12  0.17120000000E+03  0.17120000000E+03 0.  0.
         13    1    1    2    0    0  0.14868042432E+02 -0.12686935776E+01  0.17534379575E+02  0.23024636811E+02  0.10566000000E+00 0.  1.
        994    1    1    2    0    0 -0.16358133079E+02  0.29762331308E+01  0.64523303318E+01  0.17212646237E+03  0.17120000000E+03 0.  0.
        998    1    1    2    0    0  0.14900906468E+01 -0.17075395532E+01  0.14760132864E+04  0.14760489008E+04  0.10000000000E+02 0.  1.
</event>
<event>
 5    1  0.1533416E-008  0.3754518E+03  0.7957747E-01  0.3471205E+00
         13   -1    0    0    0    0  0.00000000000E+00  0.00000000000E+00  0.14999999963E+04  0.15000000000E+04  0.10566000000E+00 0. -1.
        994   -1    0    0    0    0 -0.00000000000E+00 -0.00000000000E+00  0.11368683772E-12  0.17120000000E+03  0.17120000000E+03 0.  0.
         13    1    1    2    0    0 -0.13314075892E+02  0.57891927583E+02  0.31195487179E+03  0.31756037709E+03  0.10566000000E+00 0. -1.
        994    1    1    2    0    0  0.10295807850E+01 -0.16852632458E+02  0.74150354485E+01  0.17219028430E+03  0.17120000000E+03 0.  0.
        998    1    1    2    0    0  0.12284495107E+02 -0.41039295125E+02  0.11806300890E+04  0.11814493386E+04  0.10000000000E+02 0. -1.
</event>
<event>
 5    1  0.1533416E-008  0.3824009E+03  0.7957747E-01  0.3440771E+00
         13   -1    0    0    0    0  0.00000000000E+00  0.00000000000E+00  0.14999999963E+04  0.15000000000E+04  0.10566000000E+00 0.  1.
        994   -1    0    0    0    0 -0.00000000000E+00 -0.00000000000E+00  0.11368683772E-12  0.17120000000E+03  0.17120000000E+03 0.  0.
         13    1    1    2    0    0  0.18149081718E+02 -0.19045519512E+02  0.10925986682E+03  0.11238260827E+03  0.10566000000E+00 0.  1.
        994    1    1    2    0    0 -0.17067855491E+02  0.21805427264E+02  0.54733447282E+01  0.17351134214E+03  0.17120000000E+03 0.  0.
        998    1    1    2    0    0 -0.10812262274E+01 -0.27599077522E+01  0.13852667847E+04  0.13853060496E+04  0.10000000000E+02 0.  1.
</event>
<event>
 5    1  0.1533416E-008  0.3845778E+03  0.7957747E-01  0.3431465E+00
         13   -1    0    0    0    0  0.00000000000E+00  0.00000000000E+00  0.14999999963E+04  0.15000000000E+04  0.10566000000E+00 0. -1.
        994   -1    0    0    0    0 -0.00000000000E+00 -0.00000000000E+00  0.11368683772E-12  0.17120000000E+03  0.17120000000E+03 0.  0.
         13    1    1    2    0    0  0.13714073215E+02  0.73274169474E+01  0.64460470565E+02  0.66309352831E+02  0.10566000000E+00 0. -1.
        994    1    1    2    0    0 -0.11786798981E+02 -0.53238105765E+01  0.23909419628E+01  0.17170447924E+03  0.17120000000E+03 0.  0.
        998    1    1    2    0    0 -0.19272742342E+01 -0.20036063709E+01  0.14331485838E+04  0.14331861679E+04  0.10000000000E+02 0. -1.
</event>
<event>
 5    1  0.1533416E-008  0.3707214E+03  0.7957747E-01  0.3492582E+00
         13   -1    0    0    0    0  0.00000000000E+00  0.00000000000E+00  0.14999999963E+04  0.15000000000E+04  0.10566000000E+00 0. -1.
        994   -1    0    0    0    0 -0.00000000000E+00 -0.00000000000E+00  0.11368683772E-12  0.17120000000E+03  0.17120000000E+03 0.  0.
         13    1    1    2    0    0 -0.32491255478E+02  0.69260033977E+02  0.25427433687E+03  0.26553358270E+03  0.10566000000E+00 0. -1.
        994    1    1    2    0    0  0.32567200379E+02 -0.80070933933E+02  0.35123341427E+02  0.19497452683E+03  0.17120000000E+03 0.  0.
        998    1    1    2    0    0 -0.75944901129E-01  0.10810899956E+02  0.12106023180E+04  0.12106918905E+04  0.10000000000E+02 0. -1.
</event>
<event>
 5    1  0.1533416E-008  0.3828847E+03  0.7957747E-01  0.3438693E+00
         13   -1    0    0    0    0  0.00000000000E+00  0.00000000000E+00  0.14999999963E+04  0.15000000000E+04  0.10566000000E+00 0.  1.
        994   -1    0    0    0    0 -0.00000000000E+00 -0.00000000000E+00  0.11368683772E-12  0.17120000000E+03  0.17120000000E+03 0.  0.
         13    1    1    2    0    0 -0.11957502120E+02  0.44175738576E+01  0.29034863450E+02  0.31710113139E+02  0.10566000000E+00 0.  1.
        994    1    1    2    0    0  0.12806684030E+02  0.80684054920E+00  0.32294593059E+01  0.17171060408E+03  0.17120000000E+03 0.  0.
        998    1    1    2    0    0 -0.84918191074E+00 -0.52244144068E+01  0.14677356735E+04  0.14677792828E+04  0.10000000000E+02 0.  1.
</event>
<event>
 5    1  0.1533416E-008  0.3706267E+03  0.7957747E-01  0.3493015E+00
         13   -1    0    0    0    0  0.00000000000E+00  0.00000000000E+00  0.14999999963E+04  0.15000000000E+04  0.10566000000E+00 0.  1.
        994   -1    0    0    0    0 -0.00000000000E+00 -0.00000000000E+00  0.11368683772E-12  0.17120000000E+03  0.17120000000E+03 0.  0.
         13    1    1    2    0    0 -0.49329074911E+01 -0.94759759421E+01  0.22309468394E+01  0.10914026947E+02  0.10566000000E+00 0.  1.
        994    1    1    2    0    0  0.24441203150E+02 -0.72113845569E+01  0.11185557532E+02  0.17344720573E+03  0.17120000000E+03 0.  0.
        998    1    1    2    0    0 -0.19508295659E+02  0.16687360499E+02  0.14865834919E+04  0.14868387673E+04  0.10000000000E+02 0.  1.
</event>
<event>
 5    1  0.1533416E-008  0.3793359E+03  0.7957747E-01  0.3454055E+00
         13   -1    0    0    0    0  0.00000000000E+00  0.00000000000E+00  0.14999999963E+04  0.15000000000E+04  0.10566000000E+00 0.  1.
        994   -1    0    0    0    0 -0.00000000000E+00 -0.00000000000E+00  0.11368683772E-12  0.17120000000E+03  0.17120000000E+03 0.  0.
         13    1    1    2    0    0  0.74978194808E+02  0.45077179053E+02  0.48427269216E+03  0.49211150495E+03  0.10566000000E+00 0.  1.
        994    1    1    2    0    0 -0.91381990962E+02 -0.44142133062E+02  0.39785222203E+02  0.20295689219E+03  0.17120000000E+03 0.  0.
        998    1    1    2    0    0  0.16403796154E+02 -0.93504599147E+00  0.97594208192E+03  0.97613160286E+03  0.10000000000E+02 0.  1.
</event>
<event>
 5    1  0.1533416E-008  0.3918754E+03  0.7957747E-01  0.3401026E+00
         13   -1    0    0    0    0  0.00000000000E+00  0.00000000000E+00  0.14999999963E+04  0.15000000000E+04  0.10566000000E+00 0. -1.
        994   -1    0    0    0    0 -0.00000000000E+00 -0.00000000000E+00  0.11368683772E-12  0.17120000000E+03  0.17120000000E+03 0.  0.
         13    1    1    2    0    0 -0.66818661515E+02  0.14978290134E+02  0.85750467051E+02  0.10973712437E+03  0.10566000000E+00 0. -1.
        994    1    1    2    0    0  0.77591574306E+02 -0.25291952519E+02  0.48718589380E+02  0.19581388157E+03  0.17120000000E+03 0.  0.
        998    1    1    2    0    0 -0.10772912792E+02  0.10313662385E+02  0.13655309398E+04  0.13656489941E+04  0.10000000000E+02 0. -1.
</event>
<event>
 5    1  0.1533416E-008  0.3816389E+03  0.7957747E-01  0.3444053E+00
         13   -1    0    0    0    0  0.00000000000E+00  0.00000000000E+00  0.14999999963E+04  0.15000000000E+04  0.10566000000E+00 0. -1.
        994   -1    0    0    0    0 -0.00000000000E+00 -0.00000000000E+00  0.11368683772E-12  0.17120000000E+03  0.17120000000E+03 0.  0.
         13    1    1    2    0    0  0.16599304347E+02  0.17107591171E+02  0.79870076892E+02  0.83351346284E+02  0.10566000000E+00 0. -1.
        994    1    1    2    0    0 -0.16808297447E+02 -0.20913036631E+02  0.57053266193E+01  0.17338357683E+03  0.17120000000E+03 0.  0.
        998    1    1    2    0    0  0.20899309989E+00  0.38054454601E+01  0.14144245928E+04  0.14144650769E+04  0.10000000000E+02 0. -1.
</event>
<event>
 5    1  0.1533416E-008  0.3946004E+03  0.7957747E-01  0.3389949E+00
         13   -1    0    0    0    0  0.00000000000E+00  0.00000000000E+00  0.14999999963E+04  0.15000000000E+04  0.10566000000E+00 0. -1.
        994   -1    0    0    0    0 -0.00000000000E+00 -0.00000000000E+00  0.11368683772E-12  0.17120000000E+03  0.17120000000E+03 0.  0.
         13    1    1    2    0    0  0.81643739749E+02  0.10645088805E+03  0.44157469991E+03  0.46150375792E+03  0.10566000000E+00 0. -1.
        994    1    1    2    0    0 -0.56007274867E+02 -0.17200042235E+02  0.37859784855E+02  0.18486605854E+03  0.17120000000E+03 0.  0.
        998    1    1    2    0    0 -0.25636464882E+02 -0.89250845814E+02  0.10205655115E+04  0.10248301835E+04  0.10000000000E+02 0. -1.
</event>
<event>
 5    1  0.1533416E-008  0.3848800E+03  0.7957747E-01  0.3430181E+00
         13   -1    0    0    0    0  0.00000000000E+00  0.00000000000E+00  0.14999999963E+04  0.15000000000E+04  0.10566000000E+00 0. -1.
        994   -1    0    0    0    0 -0.00000000000E+00 -0.00000000000E+00  0.11368683772E-12  0.17120000000E+03  0.17120000000E+03 0.  0.
         13    1    1    2    0    0 -0.11545191234E+02 -0.15485212884E+01  0.39860782372E+02  0.41528092830E+02  0.10566000000E+00 0. -1.
        994    1    1    2    0    0  0.85622751261E+01 -0.60519355384E+00  0.19321739965E+01  0.17142593768E+03  0.17120000000E+03 0.  0.
        998    1    1    2    0    0  0.29829161075E+01  0.21537148422E+01  0.14582070399E+04  0.14582459695E+04  0.10000000000E+02 0. -1.
</event>
<event>
 5    1  0.1533416E-008  0.3798507E+03  0.7957747E-01  0.3451809E+00
         13   -1    0    0    0    0  0.00000000000E+00  0.00000000000E+00  0.14999999963E+04  0.15000000000E+04  0.10566000000E+00 0. -1.
        994   -1    0    0    0    0 -0.00000000000E+00 -0.00000000000E+00  0.11368683772E-12  0.17120000000E+03  0.17120000000E+03 0.  0.
         13    1    1    2    0    0 -0.11088969061E+02  0.16053059495E+02  0.41332770548E+02  0.45706400418E+02  0.10566000000E+00 0. -1.
        994    1    1    2    0    0  0.20074811415E+02 -0.20801614264E+02  0.70086191058E+01  0.17376497331E+03  0.17120000000E+03 0.  0.
        998    1    1    2    0    0 -0.89858423532E+01  0.47485547690E+01  0.14516586066E+04  0.14517286263E+04  0.10000000000E+02 0. -1.
</event>
<event>
 5    1  0.1533416E-008  0.3848195E+03  0.7957747E-01  0.3430438E+00
         13   -1    0    0    0    0  0.00000000000E+00  0.00000000000E+00  0.14999999963E+04  0.15000000000E+04  0.10566000000E+00 0. -1.
        994   -1    0    0    0    0 -0.00000000000E+00 -0.00000000000E+00  0.11368683772E-12  0.17120000000E+03  0.17120000000E+03 0.  0.
         13    1    1    2    0    0 -0.27684732346E+01  0.12175186525E+02  0.46930985593E+02  0.48563650849E+02  0.10566000000E+00 0. -1.
        994    1    1    2    0    0 -0.14044419515E+01 -0.14736171435E+01  0.17334412452E+01  0.17122087730E+03  0.17120000000E+03 0.  0.
        998    1    1    2    0    0  0.41729151862E+01 -0.10701569381E+02  0.14513355694E+04  0.14514154719E+04  0.10000000000E+02 0. -1.
</event>
<event>
 5    1  0.1533416E-008  0.3709578E+03  0.7957747E-01  0.3491501E+00
         13   -1    0    0    0    0  0.00000000000E+00  0.00000000000E+00  0.14999999963E+04  0.15000000000E+04  0.10566000000E+00 0.  1.
        994   -1    0    0    0    0 -0.00000000000E+00 -0.00000000000E+00  0.11368683772E-12  0.17120000000E+03  0.17120000000E+03 0.  0.
         13    1    1    2    0    0  0.75930511061E+02  0.22980367073E+02  0.27502582354E+03  0.28623898155E+03  0.10566000000E+00 0.  1.
        994    1    1    2    0    0 -0.85711724288E+02 -0.18198614141E+02  0.35713218125E+02  0.19560818793E+03  0.17120000000E+03 0.  0.
        998    1    1    2    0    0  0.97812132262E+01 -0.47817529320E+01  0.11892609546E+04  0.11893528305E+04  0.10000000000E+02 0.  1.
</event>
<event>
 5    1  0.1533416E-008  0.4146701E+03  0.7957747E-01  0.3312825E+00
         13   -1    0    0    0    0  0.00000000000E+00  0.00000000000E+00  0.14999999963E+04  0.15000000000E+04  0.10566000000E+00 0. -1.
        994   -1    0    0    0    0 -0.00000000000E+00 -0.00000000000E+00  0.11368683772E-12  0.17120000000E+03  0.17120000000E+03 0.  0.
         13    1    1    2    0    0  0.81366977949E+00  0.63723984997E+02  0.40762696340E+02  0.75650623919E+02  0.10566000000E+00 0. -1.
        994    1    1    2    0    0  0.19138086031E+01 -0.67835990506E+02  0.56307970367E+02  0.19257573003E+03  0.17120000000E+03 0.  0.
        998    1    1    2    0    0 -0.27274783826E+01  0.41120055089E+01  0.14029293296E+04  0.14029736460E+04  0.10000000000E+02 0. -1.
</event>
<event>
 5    1  0.2225647E-008  0.3859460E+03  0.7957747E-01  0.3425670E+00
         13   -1    0    0    0    0  0.00000000000E+00  0.00000000000E+00  0.14999999963E+04  0.15000000000E+04  0.10566000000E+00 0. -1.
        994   -1    0    0    0    0 -0.00000000000E+00 -0.00000000000E+00  0.11368683772E-12  0.17120000000E+03  0.17120000000E+03 0.  0.
         13    1    1    2    0    0  0.10377164956E+02  0.24247822975E+01  0.48574911238E+02  0.49730255253E+02  0.10566000000E+00 0. -1.
        994    1    1    2    0    0 -0.10111567321E+02 -0.15371806153E+00  0.14965751581E+01  0.17150494792E+03  0.17120000000E+03 0.  0.
        998    1    1    2    0    0 -0.26559763483E+00 -0.22710642360E+01  0.14499285099E+04  0.14499647968E+04  0.10000000000E+02 0. -1.
</event>
<event>
 5    1  0.1533416E-008  0.3855971E+03  0.7957747E-01  0.3427144E+00
         13   -1    0    0    0    0  0.00000000000E+00  0.00000000000E+00  0.14999999963E+04  0.15000000000E+04  0.10566000000E+00 0. -1.
        994   -1    0    0    0    0 -0.00000000000E+00 -0.00000000000E+00  0.11368683772E-12  0.17120000000E+03  0.17120000000E+03 0.  0.
         13    1    1    2    0    0 -0.99489465724E+01 -0.12872878409E+02  0.93694994626E+02  0.95097085751E+02  0.10566000000E+00 0. -1.
        994    1    1    2    0    0  0.89579106827E+01  0.15955874381E+02  0.24337641712E+01  0.17219232648E+03  0.17120000000E+03 0.  0.
        998    1    1    2    0    0  0.99103588971E+00 -0.30829959718E+01  0.14038712375E+04  0.14039105878E+04  0.10000000000E+02 0. -1.
</event>
<event>
 5    1  0.1533416E-008  0.3856299E+03  0.7957747E-01  0.3427005E+00
         13   -1    0    0    0    0  0.00000000000E+00  0.00000000000E+00  0.14999999963E+04  0.15000000000E+04  0.10566000000E+00 0. -1.
        994   -1    0    0    0    0 -0.00000000000E+00 -0.00000000000E+00  0.11368683772E-12  0.17120000000E+03  0.17120000000E+03 0.  0.
         13    1    1    2    0    0 -0.14046700043E+02  0.10017055731E+02  0.10282038459E+03  0.10425782388E+03  0.10566000000E+00 0. -1.
        994    1    1    2    0    0  0.16161244109E+02 -0.16157978653E+02  0.30336415288E+01  0.17274521431E+03  0.17120000000E+03 0.  0.
        998    1    1    2    0    0 -0.21145440656E+01  0.61409229223E+01  0.13941459702E+04  0.13941969618E+04  0.10000000000E+02 0. -1.
</event>
<event>
 5    1  0.1533416E-008  0.3815464E+03  0.7957747E-01  0.3444453E+00
         13   -1    0    0    0    0  0.00000000000E+00  0.00000000000E+00  0.14999999963E+04  0.15000000000E+04  0.10566000000E+00 0.  1.
        994   -1    0    0    0    0 -0.00000000000E+00 -0.00000000000E+00  0.11368683772E-12  0.17120000000E+03  0.17120000000E+03 0.  0.
         13    1    1    2    0    0 -0.12146788056E+02 -0.19215435209E+02  0.81025067519E+02  0.84153729216E+02  0.10566000000E+00 0.  1.
        994    1    1    2    0    0  0.44387063996E+01 -0.96083191897E+00  0.34231761307E+01  0.17129443496E+03  0.17120000000E+03 0.  0.
        998    1    1    2    0    0  0.77080816567E+01  0.20176267128E+02  0.14155517526E+04  0.14157518358E+04  0.10000000000E+02 0.  1.
</event>
<event>
 5    1  0.1533416E-008  0.3788320E+03  0.7957747E-01  0.3456260E+00
         13   -1    0    0    0    0  0.00000000000E+00  0.00000000000E+00  0.14999999963E+04  0.15000000000E+04  0.10566000000E+00 0.  1.
        994   -1    0    0    0    0 -0.00000000000E+00 -0.00000000000E+00  0.11368683772E-12  0.17120000000E+03  0.17120000000E+03 0.  0.
         13    1    1    2    0    0 -0.30599800031E+02  0.10131094317E+02  0.99911081156E+02  0.10498200863E+03  0.10566000000E+00 0.  1.
        994    1    1    2    0    0  0.35182062804E+02 -0.92062179275E+01  0.91749669182E+01  0.17526024081E+03  0.17120000000E+03 0.  0.
        998    1    1    2    0    0 -0.45822627730E+01 -0.92487638981E+00  0.13909139482E+04  0.13909577506E+04  0.10000000000E+02 0.  1.
</event>
<event>
 5    1  0.1533416E-008  0.3848623E+03  0.7957747E-01  0.3430256E+00
         13   -1    0    0    0    0  0.00000000000E+00  0.00000000000E+00  0.14999999963E+04  0.15000000000E+04  0.10566000000E+00 0.  1.
        994   -1    0    0    0    0 -0.00000000000E+00 -0.00000000000E+00  0.11368683772E-12  0.17120000000E+03  0.17120000000E+03 0.  0.
         13    1    1    2    0    0  0.16133313592E+02 -0.94869531566E+01  0.92220488500E+02  0.94100561905E+02  0.10566000000E+00 0.  1.
        994    1    1    2    0    0 -0.31310963488E+02  0.12879893441E+01  0.49362187775E+01  0.17411444974E+03  0.17120000000E+03 0.  0.
        998    1    1    2    0    0  0.15177649896E+02  0.81989638125E+01  0.14028432890E+04  0.14029849884E+04  0.10000000000E+02 0.  1.
</event>
<event>
 5    1  0.1533416E-008  0.3820207E+03  0.7957747E-01  0.3442407E+00
         13   -1    0    0    0    0  0.00000000000E+00  0.00000000000E+00  0.14999999963E+04  0.15000000000E+04  0.10566000000E+00 0. -1.
        994   -1    0    0    0    0 -0.00000000000E+00 -0.00000000000E+00  0.11368683772E-12  0.17120000000E+03  0.17120000000E+03 0.  0.
         13    1    1    2    0    0  0.19928222937E+02  0.33899588668E+01  0.66419592560E+02  0.69427655372E+02  0.10566000000E+00 0. -1.
        994    1    1    2    0    0 -0.76530117922E+01  0.35120859351E+01  0.33520722060E+01  0.17143972622E+03  0.17120000000E+03 0.  0.
        998    1    1    2    0    0 -0.12275211145E+02 -0.69020448019E+01  0.14302283315E+04  0.14303326184E+04  0.10000000000E+02 0. -1.
</event>
<event>
 5    1  0.1533416E-008  0.3721702E+03  0.7957747E-01  0.3485976E+00
         13   -1    0    0    0    0  0.00000000000E+00  0.00000000000E+00  0.14999999963E+04  0.15000000000E+04  0.10566000000E+00 0. -1.
        994   -1    0    0    0    0 -0.00000000000E+00 -0.00000000000E+00  0.11368683772E-12  0.17120000000E+03  0.17120000000E+03 0.  0.
         13    1    1    2    0    0 -0.57099039829E+01 -0.15810553950E+02  0.13478417027E+02  0.21546589273E+02  0.10566000000E+00 0. -1.
        994    1    1    2    0    0  0.12987363098E+02  0.18216035236E+02  0.98586985906E+01  0.17293677885E+03  0.17120000000E+03 0.  0.
        998    1    1    2    0    0 -0.72774591152E+01 -0.24054812864E+01  0.14766628807E+04  0.14767166319E+04  0.10000000000E+02 0. -1.
</event>
<event>
 5    1  0.1533416E-008  0.3819661E+03  0.7957747E-01  0.3442642E+00
         13   -1    0    0    0    0  0.00000000000E+00  0.00000000000E+00  0.14999999963E+04  0.15000000000E+04  0.10566000000E+00 0. -1.
        994   -1    0    0    0    0 -0.00000000000E+00 -0.00000000000E+00  0.11368683772E-12  0.17120000000E+03  0.17120000000E+03 0.  0.
         13    1    1    2    0    0 -0.20498806710E+02 -0.74432516467E+01  0.77494337555E+02  0.80504574955E+02  0.10566000000E+00 0. -1.
        994    1    1    2    0    0  0.41429741008E+01  0.74322553538E+01  0.33844489974E+01  0.17144473497E+03  0.17120000000E+03 0.  0.
        998    1    1    2    0    0  0.16355832610E+02  0.10996292892E-01  0.14191212097E+04  0.14192506901E+04  0.10000000000E+02 0. -1.
</event>
<event>
 5    1  0.1533416E-008  0.3843014E+03  0.7957747E-01  0.3432640E+00
         13   -1    0    0    0    0  0.00000000000E+00  0.00000000000E+00  0.14999999963E+04  0.15000000000E+04  0.10566000000E+00 0.  1.
        994   -1    0    0    0    0 -0.00000000000E+00 -0.00000000000E+00  0.11368683772E-12  0.17120000000E+03  0.17120000000E+03 0.  0.
         13    1    1    2    0    0  0.19485770131E+02  0.97177145945E+01  0.12194271795E+03  0.12387157397E+03  0.10566000000E+00 0.  1.
        994    1    1    2    0    0 -0.54621020942E+01 -0.14178511369E+02  0.27386844408E+01  0.17189475017E+03  0.17120000000E+03 0.  0.
        998    1    1    2    0    0 -0.14023668036E+02  0.44607967744E+01  0.13753185939E+04  0.13754336759E+04  0.10000000000E+02 0.  1.
</event>
<event>
 5    1  0.1533416E-008  0.3738097E+03  0.7957747E-01  0.3478563E+00
         13   -1    0    0    0    0  0.00000000000E+00  0.00000000000E+00  0.14999999963E+04  0.15000000000E+04  0.10566000000E+00 0. -1.
        994   -1    0    0    0    0 -0.00000000000E+00 -0.00000000000E+00  0.11368683772E-12  0.17120000000E+03  0.17120000000E+03 0.  0.
         13    1    1    2    0    0 -0.60756313832E+01  0.93294062680E+02  0.52274863908E+03  0.53104316797E+03  0.10566000000E+00 0. -1.
        994    1    1    2    0    0 -0.11187741519E+02 -0.68319795832E+02  0.23829088277E+02  0.18619888698E+03  0.17120000000E+03 0.  0.
        998    1    1    2    0    0  0.17263372902E+02 -0.24974266848E+02  0.95342226892E+03  0.95395794505E+03  0.10000000000E+02 0. -1.
</event>
<event>
 5    1  0.1533416E-008  0.3811937E+03  0.7957747E-01  0.3445977E+00
         13   -1    0    0    0    0  0.00000000000E+00  0.00000000000E+00  0.14999999963E+04  0.15000000000E+04  0.10566000000E+00 0.  1.
        994   -1    0    0    0    0 -0.00000000000E+00 -0.00000000000E+00  0.11368683772E-12  0.17120000000E+03  0.17120000000E+03 0.  0.
         13    1    1    2    0    0  0.10163001966E+02 -0.82653462981E+01  0.22446137129E+02  0.25989282299E+02  0.10566000000E+00 0.  1.
        994    1    1    2    0    0 -0.14982501182E+02  0.64345024874E+01  0.44175926707E+01  0.17203148924E+03  0.17120000000E+03 0.  0.
        998    1    1    2    0    0  0.48194992154E+01  0.18308438106E+01  0.14731362665E+04  0.14731792285E+04  0.10000000000E+02 0.  1.
</event>
<event>
 5    1  0.1533416E-008  0.3854616E+03  0.7957747E-01  0.3427717E+00
         13   -1    0    0    0    0  0.00000000000E+00  0.00000000000E+00  0.14999999963E+04  0.15000000000E+04  0.10566000000E+00 0. -1.
        994   -1    0    0    0    0 -0.00000000000E+00 -0.00000000000E+00  0.11368683772E-12  0.17120000000E+03  0.17120000000E+03 0.  0.
         13    1    1    2    0    0  0.16602746696E+02  0.32160914751E+01  0.95875076459E+02  0.97355204752E+02  0.10566000000E+00 0. -1.
        994    1    1    2    0    0 -0.18601727541E+02 -0.40814008785E+01  0.25929855406E+01  0.17227549354E+03  0.17120000000E+03 0.  0.
        998    1    1    2    0    0  0.19989808456E+01  0.86530940341E+00  0.14015319343E+04  0.14015693017E+04  0.10000000000E+02 0. -1.
</event>
<event>
 5    1  0.1533416E-008  0.3861613E+03  0.7957747E-01  0.3424762E+00
         13   -1    0    0    0    0  0.00000000000E+00  0.00000000000E+00  0.14999999963E+04  0.15000000000E+04  0.10566000000E+00 0.  1.
        994   -1    0    0    0    0 -0.00000000000E+00 -0.00000000000E+00  0.11368683772E-12  0.17120000000E+03  0.17120000000E+03 0.  0.
         13    1    1    2    0    0  0.18002700165E+01 -0.10573922124E+02  0.56730887437E+02  0.57736068057E+02  0.10566000000E+00 0.  1.
        994    1    1    2    0    0  0.84904547712E+01  0.54636674771E+01  0.13887144686E+01  0.17150308456E+03  0.17120000000E+03 0.  0.
        998    1    1    2    0    0 -0.10290724788E+02  0.51102546469E+01  0.14418803944E+04  0.14419608474E+04  0.10000000000E+02 0.  1.
</event>
<event>
 5    1  0.1533416E-008  0.3843577E+03  0.7957747E-01  0.3432401E+00
         13   -1    0    0    0    0  0.00000000000E+00  0.00000000000E+00  0.14999999963E+04  0.15000000000E+04  0.10566000000E+00 0. -1.
        994   -1    0    0    0    0 -0.00000000000E+00 -0.00000000000E+00  0.11368683772E-12  0.17120000000E+03  0.17120000000E+03 0.  0.
         13    1    1    2    0    0 -0.17607057829E+02  0.10006393626E+02  0.96637324808E+02  0.98736619898E+02  0.10566000000E+00 0. -1.
        994    1    1    2    0    0  0.20564125112E+02 -0.13451339134E+02  0.39418049962E+01  0.17299942079E+03  0.17120000000E+03 0.  0.
        998    1    1    2    0    0 -0.29570672831E+01  0.34449455078E+01  0.13994208665E+04  0.13994639593E+04  0.10000000000E+02 0. -1.
</event>
<event>
 5    1  0.1533416E-008  0.3818543E+03  0.7957747E-01  0.3443124E+00
         13   -1    0    0    0    0  0.00000000000E+00  0.00000000000E+00  0.14999999963E+04  0.15000000000E+04  0.10566000000E+00 0.  1.
        994   -1    0    0    0    0 -0.00000000000E+00 -0.00000000000E+00  0.11368683772E-12  0.17120000000E+03  0.17120000000E+03 0.  0.
         13    1    1    2    0    0  0.81581395300E+01  0.25262972737E+02  0.10456978992E+03  0.10788709450E+03  0.10566000000E+00 0.  1.
        994    1    1    2    0    0 -0.57372294686E+01 -0.22746671657E+02  0.50306461390E+01  0.17287300042E+03  0.17120000000E+03 0.  0.
        998    1    1    2    0    0 -0.24209100614E+01 -0.25163010795E+01  0.13903995602E+04  0.13904399051E+04  0.10000000000E+02 0.  1.
</event>
<event>
 5    1  0.1533416E-008  0.3855816E+03  0.7957747E-01  0.3427209E+00
         13   -1    0    0    0    0  0.00000000000E+00  0.00000000000E+00  0.14999999963E+04  0.15000000000E+04  0.10566000000E+00 0.  1.
        994   -1    0    0    0    0 -0.00000000000E+00 -0.00000000000E+00  0.11368683772E-12  0.17120000000E+03  0.17120000000E+03 0.  0.
         13    1    1    2    0    0 -0.11516492993E+02  0.50501550751E+01  0.62324624251E+02  0.63580685976E+02  0.10566000000E+00 0.  1.
        994    1    1    2    0    0 -0.19380644119E+00 -0.31874814894E+01  0.13751143256E+01  0.17123530167E+03  0.17120000000E+03 0.  0.
        998    1    1    2    0    0  0.11710299434E+02 -0.18626735857E+01  0.14363002577E+04  0.14363840124E+04  0.10000000000E+02 0.  1.
</event>
<event>
 5    1  0.1533416E-008  0.3808007E+03  0.7957747E-01  0.3447679E+00
         13   -1    0    0    0    0  0.00000000000E+00  0.00000000000E+00  0.14999999963E+04  0.15000000000E+04  0.10566000000E+00 0.  1.
        994   -1    0    0    0    0 -0.00000000000E+00 -0.00000000000E+00  0.11368683772E-12  0.17120000000E+03  0.17120000000E+03 0.  0.
         13    1    1    2    0    0 -0.16553592226E+02  0.16554996584E+02  0.77570912815E+02  0.81026828930E+02  0.10566000000E+00 0.  1.
        994    1    1    2    0    0 -0.42856691978E+01 -0.39255868964E+01  0.38421250608E+01  0.17134170280E+03  0.17120000000E+03 0.  0.
        998    1    1    2    0    0  0.20839261424E+02 -0.12629409688E+02  0.14185869584E+04  0.14188314683E+04  0.10000000000E+02 0.  1.
</event>
<event>
 5    1  0.1533416E-008  0.3810947E+03  0.7957747E-01  0.3446406E+00
         13   -1    0    0    0    0  0.00000000000E+00  0.00000000000E+00  0.14999999963E+04  0.15000000000E+04  0.10566000000E+00 0. -1.
        994   -1    0    0    0    0 -0.00000000000E+00 -0.00000000000E+00  0.11368683772E-12  0.17120000000E+03  0.17120000000E+03 0.  0.
         13    1    1    2    0    0  0.21523737729E+02  0.28553763340E+01  0.61156548214E+02  0.64896525433E+02  0.10566000000E+00 0. -1.
        994    1    1    2    0    0 -0.26834669744E+02  0.13244488146E+01  0.59896824569E+01  0.17339887532E+03  0.17120000000E+03 0.  0.
        998    1    1    2    0    0  0.53109320146E+01 -0.41798251486E+01  0.14328537656E+04  0.14329045993E+04  0.10000000000E+02 0. -1.
</event>
<event>
 5    1  0.1533416E-008  0.3736688E+03  0.7957747E-01  0.3479198E+00
         13   -1    0    0    0    0  0.00000000000E+00  0.00000000000E+00  0.14999999963E+04  0.15000000000E+04  0.10566000000E+00 0.  1.
        994   -1    0    0    0    0 -0.00000000000E+00 -0.00000000000E+00  0.11368683772E-12  0.17120000000E+03  0.17120000000E+03 0.  0.
         13    1    1    2    0    0 -0.17354865873E+03  0.78511572277E+02  0.95169303417E+03  0.97056831104E+03  0.10566000000E+00 0.  1.
        994    1    1    2    0    0  0.16282228693E+03 -0.71346335379E+02  0.12434519711E+03  0.27635586612E+03  0.17120000000E+03 0.  0.
        998    1    1    2    0    0  0.10726371803E+02 -0.71652368983E+01  0.42396176500E+03  0.42427582285E+03  0.10000000000E+02 0.  1.
</event>
<event>
 5    1  0.1533416E-008  0.3850313E+03  0.7957747E-01  0.3429540E+00
         13   -1    0    0    0    0  0.00000000000E+00  0.00000000000E+00  0.14999999963E+04  0.15000000000E+04  0.10566000000E+00 0. -1.
        994   -1    0    0    0    0 -0.00000000000E+00 -0.00000000000E+00  0.11368683772E-12  0.17120000000E+03  0.17120000000E+03 0.  0.
         13    1    1    2    0    0  0.11959481443E+02  0.65632189578E+01  0.55805925639E+02  0.57449260569E+02  0.10566000000E+00 0. -1.
        994    1    1    2    0    0 -0.12494343808E+02 -0.74635678601E+01  0.23114354522E+01  0.17183304748E+03  0.17120000000E+03 0.  0.
        998    1    1    2    0    0  0.53486236483E+00  0.90034890225E+00  0.14418826352E+04  0.14419176920E+04  0.10000000000E+02 0. -1.
</event>
<event>
 5    1  0.1533416E-008  0.3839865E+03  0.7957747E-01  0.3433982E+00
         13   -1    0    0    0    0  0.00000000000E+00  0.00000000000E+00  0.14999999963E+04  0.15000000000E+04  0.10566000000E+00 0. -1.
        994   -1    0    0    0    0 -0.00000000000E+00 -0.00000000000E+00  0.11368683772E-12  0.17120000000E+03  0.17120000000E+03 0.  0.
         13    1    1    2    0    0 -0.79430041702E+01 -0.71030824869E+01  0.25671911275E+02  0.27795742275E+02  0.10566000000E+00 0. -1.
        994    1    1    2    0    0  0.15836068122E+02 -0.19743513052E+01  0.29749105227E+01  0.17196793076E+03  0.17120000000E+03 0.  0.
        998    1    1    2    0    0 -0.78930639513E+01  0.90774337921E+01  0.14713531745E+04  0.14714363270E+04  0.10000000000E+02 0. -1.
</event>
<event>
 5    1  0.1533416E-008  0.3846263E+03  0.7957747E-01  0.3431259E+00
         13   -1    0    0    0    0  0.00000000000E+00  0.00000000000E+00  0.14999999963E+04  0.15000000000E+04  0.10566000000E+00 0.  1.
        994   -1    0    0    0    0 -0.00000000000E+00 -0.00000000000E+00  0.11368683772E-12  0.17120000000E+03  0.17120000000E+03 0.  0.
         13    1    1    2    0    0  0.69726339071E+00 -0.10320941743E+02  0.27217927794E+02  0.29117602445E+02  0.10566000000E+00 0.  1.
        994    1    1    2    0    0 -0.69843223775E+02  0.20490638066E+02  0.19459106514E+02  0.18704555323E+03  0.17120000000E+03 0.  0.
        998    1    1    2    0    0  0.69145960384E+02 -0.10169696324E+02  0.14533229620E+04  0.14550368443E+04  0.10000000000E+02 0.  1.
</event>
<event>
 5    1  0.1533416E-008  0.3736456E+03  0.7957747E-01  0.3479302E+00
         13   -1    0    0    0    0  0.00000000000E+00  0.00000000000E+00  0.14999999963E+04  0.15000000000E+04  0.10566000000E+00 0.  1.
        994   -1    0    0    0    0 -0.00000000000E+00 -0.00000000000E+00  0.11368683772E-12  0.17120000000E+03  0.17120000000E+03 0.  0.
         13    1    1    2    0    0 -0.15967827260E+02  0.13644021782E+02  0.25219806080E+02  0.32820429926E+02  0.10566000000E+00 0.  1.
        994    1    1    2    0    0  0.35332865475E+01 -0.53831447052E+02  0.17379959975E+02  0.18033804871E+03  0.17120000000E+03 0.  0.
        998    1    1    2    0    0  0.12434540712E+02  0.40187425270E+02  0.14574002302E+04  0.14580415214E+04  0.10000000000E+02 0.  1.
</event>
<event>
 5    1  0.1533416E-008  0.3809883E+03  0.7957747E-01  0.3446866E+00
         13   -1    0    0    0    0  0.00000000000E+00  0.00000000000E+00  0.14999999963E+04  0.15000000000E+04  0.10566000000E+00 0. -1.
        994   -1    0    0    0    0 -0.00000000000E+00 -0.00000000000E+00  0.11368683772E-12  0.17120000000E+03  0.17120000000E+03 0.  0.
         13    1    1    2    0    0 -0.13782362486E+02  0.71754689924E+01  0.31291282683E+02  0.34937034891E+02  0.10566000000E+00 0. -1.
        994    1    1    2    0    0  0.10220401365E+02 -0.14209537754E+02  0.46565570541E+01  0.17215542713E+03  0.17120000000E+03 0.  0.
        998    1    1    2    0    0  0.35619611207E+01  0.70340687614E+01  0.14640521565E+04  0.14641075380E+04  0.10000000000E+02 0. -1.
</event>
<event>
 5    1  0.1533416E-008  0.3812112E+03  0.7957747E-01  0.3445901E+00
         13   -1    0    0    0    0  0.00000000000E+00  0.00000000000E+00  0.14999999963E+04  0.15000000000E+04  0.10566000000E+00 0. -1.
        994   -1    0    0    0    0 -0.00000000000E+00 -0.00000000000E+00  0.11368683772E-12  0.17120000000E+03  0.17120000000E+03 0.  0.
         13    1    1    2    0    0 -0.52387729301E+01 -0.29855600601E+02  0.12266704413E+03  0.12635670346E+03  0.10566000000E+00 0. -1.
        994    1    1    2    0    0  0.99012839132E+01  0.25431871412E+02  0.60068443376E+01  0.17346566717E+03  0.17120000000E+03 0.  0.
        998    1    1    2    0    0 -0.46625109831E+01  0.44237291887E+01  0.13713261078E+04  0.13713776294E+04  0.10000000000E+02 0. -1.
</event>
<event>
 5    1  0.1533416E-008  0.3842612E+03  0.7957747E-01  0.3432812E+00
         13   -1    0    0    0    0  0.00000000000E+00  0.00000000000E+00  0.14999999963E+04  0.15000000000E+04  0.10566000000E+00 0. -1.
        994   -1    0    0    0    0 -0.00000000000E+00 -0.00000000000E+00  0.11368683772E-12  0.17120000000E+03  0.17120000000E+03 0.  0.
         13    1    1    2    0    0 -0.19531937074E+02  0.13163287242E+02  0.11539695291E+03  0.11777621408E+03  0.10566000000E+00 0. -1.
        994    1    1    2    0    0  0.29065890193E+02 -0.26885781418E+02  0.71824714208E+01  0.17586557114E+03  0.17120000000E+03 0.  0.
        998    1    1    2    0    0 -0.95339531191E+01  0.13722494176E+02  0.13774205719E+04  0.13775582148E+04  0.10000000000E+02 0. -1.
</event>
<event>
 5    1  0.1533416E-008  0.3807795E+03  0.7957747E-01  0.3447772E+00
         13   -1    0    0    0    0  0.00000000000E+00  0.00000000000E+00  0.14999999963E+04  0.15000000000E+04  0.10566000000E+00 0.  1.
        994   -1    0    0    0    0 -0.00000000000E+00 -0.00000000000E+00  0.11368683772E-12  0.17120000000E+03  0.17120000000E+03 0.  0.
         13    1    1    2    0    0  0.10553775045E+02 -0.75195018575E+01  0.20552556222E+02  0.24296991731E+02  0.10566000000E+00 0.  1.
        994    1    1    2    0    0 -0.97937058479E+01  0.12772855552E+02  0.46044645250E+01  0.17201657945E+03  0.17120000000E+03 0.  0.
        998    1    1    2    0    0 -0.76006919690E+00 -0.52533536945E+01  0.14748429755E+04  0.14748864288E+04  0.10000000000E+02 0.  1.
</event>
<event>
 5    1  0.1533416E-008  0.3850204E+03  0.7957747E-01  0.3429586E+00
         13   -1    0    0    0    0  0.00000000000E+00  0.00000000000E+00  0.14999999963E+04  0.15000000000E+04  0.10566000000E+00 0.  1.
        994   -1    0    0    0    0 -0.00000000000E+00 -0.00000000000E+00  0.11368683772E-12  0.17120000000E+03  0.17120000000E+03 0.  0.
         13    1    1    2    0    0  0.13704285546E+02 -0.79676940958E+01  0.73806008681E+02  0.75489268594E+02  0.10566000000E+00 0.  1.
        994    1    1    2    0    0 -0.13712518169E+02  0.11967269535E+02  0.27100414258E+01  0.17218604188E+03  0.17120000000E+03 0.  0.
        998    1    1    2    0    0  0.82326235582E-02 -0.39995754392E+01  0.14234839462E+04  0.14235246895E+04  0.10000000000E+02 0.  1.
</event>
<event>
 5    1  0.1533416E-008  0.3820039E+03  0.7957747E-01  0.3442479E+00
         13   -1    0    0    0    0  0.00000000000E+00  0.00000000000E+00  0.14999999963E+04  0.15000000000E+04  0.10566000000E+00 0. -1.
        994   -1    0    0    0    0 -0.00000000000E+00 -0.00000000000E+00  0.11368683772E-12  0.17120000000E+03  0.17120000000E+03 0.  0.
         13    1    1    2    0    0 -0.95570321660E+01  0.10730845160E+02  0.32009511192E+02  0.35087146827E+02  0.10566000000E+00 0. -1.
        994    1    1    2    0    0  0.18058226509E+01 -0.10117100328E+02  0.34758125563E+01  0.17154339972E+03  0.17120000000E+03 0.  0.
        998    1    1    2    0    0  0.77512095151E+01 -0.61374483160E+00  0.14645146725E+04  0.14645694535E+04  0.10000000000E+02 0. -1.
</event>
<event>
 5    1  0.1533416E-008  0.3792701E+03  0.7957747E-01  0.3454343E+00
         13   -1    0    0    0    0  0.00000000000E+00  0.00000000000E+00  0.14999999963E+04  0.15000000000E+04  0.10566000000E+00 0.  1.
        994   -1    0    0    0    0 -0.00000000000E+00 -0.00000000000E+00  0.11368683772E-12  0.17120000000E+03  0.17120000000E+03 0.  0.
         13    1    1    2    0    0  0.36840250962E+02  0.34832754140E+02  0.92248846954E+02  0.10526341140E+03  0.10566000000E+00 0.  1.
        994    1    1    2    0    0  0.14025508506E+02  0.34055063259E+02  0.20844695346E+02  0.17635306503E+03  0.17120000000E+03 0.  0.
        998    1    1    2    0    0 -0.50865759468E+02 -0.68887817399E+02  0.13869064540E+04  0.13895835236E+04  0.10000000000E+02 0.  1.
</event>
<event>
 5    1  0.1533416E-008  0.3821629E+03  0.7957747E-01  0.3441794E+00
         13   -1    0    0    0    0  0.00000000000E+00  0.00000000000E+00  0.14999999963E+04  0.15000000000E+04  0.10566000000E+00 0. -1.
        994   -1    0    0    0    0 -0.00000000000E+00 -0.00000000000E+00  0.11368683772E-12  0.17120000000E+03  0.17120000000E+03 0.  0.
         13    1    1    2    0    0  0.11072697661E+02 -0.14718194431E+01  0.19450582046E+02  0.22430051091E+02  0.10566000000E+00 0. -1.
        994    1    1    2    0    0 -0.57511199680E+01 -0.58884003370E+01  0.32701738108E+01  0.17142894352E+03  0.17120000000E+03 0.  0.
        998    1    1    2    0    0 -0.53215776935E+01  0.73602197801E+01  0.14772792404E+04  0.14773410054E+04  0.10000000000E+02 0. -1.
</event>
<event>
 5    1  0.1533416E-008  0.3791359E+03  0.7957747E-01  0.3454930E+00
         13   -1    0    0    0    0  0.00000000000E+00  0.00000000000E+00  0.14999999963E+04  0.15000000000E+04  0.10566000000E+00 0. -1.
        994   -1    0    0    0    0 -0.00000000000E+00 -0.00000000000E+00  0.11368683772E-12  0.17120000000E+03  0.17120000000E+03 0.  0.
         13    1    1    2    0    0 -0.19565100470E+03 -0.45761922920E+02  0.94894996793E+03  0.96998944429E+03  0.10566000000E+00 0. -1.
        994    1    1    2    0    0  0.20267209533E+03  0.49969492464E+02  0.16806299872E+03  0.31800556590E+03  0.17120000000E+03 0.  0.
        998    1    1    2    0    0 -0.70210906296E+01 -0.42075695438E+01  0.38298702962E+03  0.38320498981E+03  0.10000000000E+02 0.  0.
</event>
<event>
 5    1  0.1533416E-008  0.3812483E+03  0.7957747E-01  0.3445741E+00
         13   -1    0    0    0    0  0.00000000000E+00  0.00000000000E+00  0.14999999963E+04  0.15000000000E+04  0.10566000000E+00 0. -1.
        994   -1    0    0    0    0 -0.00000000000E+00 -0.00000000000E+00  0.11368683772E-12  0.17120000000E+03  0.17120000000E+03 0.  0.
         13    1    1    2    0    0  0.12659943730E+02 -0.16670694148E+02  0.64318360288E+02  0.67639107422E+02  0.10566000000E+00 0. -1.
        994    1    1    2    0    0  0.13205860230E+01  0.44693721682E+01  0.35766292218E+01  0.17130076331E+03  0.17120000000E+03 0.  0.
        998    1    1    2    0    0 -0.13980529753E+02  0.12201321980E+02  0.14321050068E+04  0.14322601293E+04  0.10000000000E+02 0. -1.
</event>
<event>
 5    1  0.1533416E-008  0.3812230E+03  0.7957747E-01  0.3445851E+00
         13   -1    0    0    0    0  0.00000000000E+00  0.00000000000E+00  0.14999999963E+04  0.15000000000E+04  0.10566000000E+00 0.  1.
        994   -1    0    0    0    0 -0.00000000000E+00 -0.00000000000E+00  0.11368683772E-12  0.17120000000E+03  0.17120000000E+03 0.  0.
         13    1    1    2    0    0 -0.15358558067E+02 -0.15129384258E+02  0.68098825007E+02  0.71429998637E+02  0.10566000000E+00 0.  1.
        994    1    1    2    0    0  0.28606292429E+01  0.16291032856E+01  0.35531539226E+01  0.17126850872E+03  0.17120000000E+03 0.  0.
        998    1    1    2    0    0  0.12497928824E+02  0.13500280973E+02  0.14283480173E+04  0.14285014926E+04  0.10000000000E+02 0.  1.
</event>
<event>
 5    1  0.1533416E-008  0.3754683E+03  0.7957747E-01  0.3471131E+00
         13   -1    0    0    0    0  0.00000000000E+00  0.00000000000E+00  0.14999999963E+04  0.15000000000E+04  0.10566000000E+00 0.  1.
        994   -1    0    0    0    0 -0.00000000000E+00 -0.00000000000E+00  0.11368683772E-12  0.17120000000E+03  0.17120000000E+03 0.  0.
         13    1    1    2    0    0 -0.20161995496E+02 -0.16816625258E+02  0.49778300646E+02  0.56277840458E+02  0.10566000000E+00 0.  1.
        994    1    1    2    0    0  0.25051331238E+02  0.89620252782E+01  0.88446209363E+01  0.17348070329E+03  0.17120000000E+03 0.  0.
        998    1    1    2    0    0 -0.48893357416E+01  0.78545999796E+01  0.14413770747E+04  0.14414414563E+04  0.10000000000E+02 0.  1.
</event>
<event>
 5    1  0.1533416E-008  0.3768334E+03  0.7957747E-01  0.3465063E+00
         13   -1    0    0    0    0  0.00000000000E+00  0.00000000000E+00  0.14999999963E+04  0.15000000000E+04  0.10566000000E+00 0. -1.
        994   -1    0    0    0    0 -0.00000000000E+00 -0.00000000000E+00  0.11368683772E-12  0.17120000000E+03  0.17120000000E+03 0.  0.
         13    1    1    2    0    0  0.26710558166E+02 -0.13477935827E+02  0.67428525278E+02  0.73768054447E+02  0.10566000000E+00 0. -1.
        994    1    1    2    0    0 -0.53689672430E+02  0.50182372111E+01  0.15627405627E+02  0.18017052877E+03  0.17120000000E+03 0.  0.
        998    1    1    2    0    0  0.26979114264E+02  0.84596986157E+01  0.14169440654E+04  0.14172614168E+04  0.10000000000E+02 0. -1.
</event>
<event>
 5    1  0.1533416E-008  0.3803535E+03  0.7957747E-01  0.3449621E+00
         13   -1    0    0    0    0  0.00000000000E+00  0.00000000000E+00  0.14999999963E+04  0.15000000000E+04  0.10566000000E+00 0. -1.
        994   -1    0    0    0    0 -0.00000000000E+00 -0.00000000000E+00  0.11368683772E-12  0.17120000000E+03  0.17120000000E+03 0.  0.
         13    1    1    2    0    0  0.94855986967E+01  0.37729826836E+02  0.22711364317E+03  0.23042164502E+03  0.10566000000E+00 0. -1.
        994    1    1    2    0    0  0.45398756228E+01 -0.23478203733E+01  0.40420568532E+01  0.17132396492E+03  0.17120000000E+03 0.  0.
        998    1    1    2    0    0 -0.14025474319E+02 -0.35382006462E+02  0.12688442963E+04  0.12694543901E+04  0.10000000000E+02 0. -1.
</event>
<event>
 5    1  0.1533416E-008  0.4181973E+03  0.7957747E-01  0.3300027E+00
         13   -1    0    0    0    0  0.00000000000E+00  0.00000000000E+00  0.14999999963E+04  0.15000000000E+04  0.10566000000E+00 0. -1.
        994   -1    0    0    0    0 -0.00000000000E+00 -0.00000000000E+00  0.11368683772E-12  0.17120000000E+03  0.17120000000E+03 0.  0.
         13    1    1    2    0    0 -0.13725821598E+03 -0.54200522294E+02  0.39947355487E+03  0.42585989090E+03  0.10566000000E+00 0. -1.
        994    1    1    2    0    0 -0.43920547062E+01  0.52713668184E+02  0.51073210780E+02  0.18632212380E+03  0.17120000000E+03 0.  0.
        998    1    1    2    0    0  0.14165027068E+03  0.14868541097E+01  0.10494532306E+04  0.10590179853E+04  0.10000000000E+02 0. -1.
</event>
<event>
 5    1  0.1533416E-008  0.3862490E+03  0.7957747E-01  0.3424392E+00
         13   -1    0    0    0    0  0.00000000000E+00  0.00000000000E+00  0.14999999963E+04  0.15000000000E+04  0.10566000000E+00 0. -1.
        994   -1    0    0    0    0 -0.00000000000E+00 -0.00000000000E+00  0.11368683772E-12  0.17120000000E+03  0.17120000000E+03 0.  0.
         13    1    1    2    0    0  0.88771252693E+01  0.59943172071E+01  0.55496232910E+02  0.56520599989E+02  0.10566000000E+00 0. -1.
        994    1    1    2    0    0 -0.81058574372E+01 -0.10215395752E+02  0.15685088227E+01  0.17170311428E+03  0.17120000000E+03 0.  0.
        998    1    1    2    0    0 -0.77126783212E+00  0.42210785448E+01  0.14429352545E+04  0.14429762857E+04  0.10000000000E+02 0. -1.
</event>
<event>
 5    1  0.1533416E-008  0.3860374E+03  0.7957747E-01  0.3425284E+00
         13   -1    0    0    0    0  0.00000000000E+00  0.00000000000E+00  0.14999999963E+04  0.15000000000E+04  0.10566000000E+00 0. -1.
        994   -1    0    0    0    0 -0.00000000000E+00 -0.00000000000E+00  0.11368683772E-12  0.17120000000E+03  0.17120000000E+03 0.  0.
         13    1    1    2    0    0  0.80603205235E+01  0.74981208562E+01  0.59346135697E+02  0.60358641216E+02  0.10566000000E+00 0. -1.
        994    1    1    2    0    0  0.16472007825E+01  0.26238984158E+01  0.11474252964E+01  0.17123187407E+03  0.17120000000E+03 0.  0.
        998    1    1    2    0    0 -0.97075213061E+01 -0.10122019272E+02  0.14395064353E+04  0.14396094847E+04  0.10000000000E+02 0. -1.
</event>
<event>
 5    1  0.1533416E-008  0.3821247E+03  0.7957747E-01  0.3441959E+00
         13   -1    0    0    0    0  0.00000000000E+00  0.00000000000E+00  0.14999999963E+04  0.15000000000E+04  0.10566000000E+00 0.  1.
        994   -1    0    0    0    0 -0.00000000000E+00 -0.00000000000E+00  0.11368683772E-12  0.17120000000E+03  0.17120000000E+03 0.  0.
         13    1    1    2    0    0 -0.56129098925E+01  0.13497548768E+02  0.34679761168E+02  0.37634898417E+02  0.10566000000E+00 0.  1.
        994    1    1    2    0    0  0.31268867369E+01 -0.14496210061E+01  0.31038918406E+01  0.17126281840E+03  0.17120000000E+03 0.  0.
        998    1    1    2    0    0  0.24860231556E+01 -0.12047927762E+02  0.14622163433E+04  0.14623022832E+04  0.10000000000E+02 0.  1.
</event>
<event>
 5    1  0.1533416E-008  0.3857219E+03  0.7957747E-01  0.3426616E+00
         13   -1    0    0    0    0  0.00000000000E+00  0.00000000000E+00  0.14999999963E+04  0.15000000000E+04  0.10566000000E+00 0. -1.
        994   -1    0    0    0    0 -0.00000000000E+00 -0.00000000000E+00  0.11368683772E-12  0.17120000000E+03  0.17120000000E+03 0.  0.
         13    1    1    2    0    0 -0.10335280555E+02  0.37429962188E+01  0.48307230476E+02  0.49542181271E+02  0.10566000000E+00 0. -1.
        994    1    1    2    0    0  0.57687823659E+01 -0.11020618037E+01  0.13853274633E+01  0.17130631197E+03  0.17120000000E+03 0.  0.
        998    1    1    2    0    0  0.45664981894E+01 -0.26409344151E+01  0.14503074383E+04  0.14503515068E+04  0.10000000000E+02 0. -1.
</event>
<event>
 5    1  0.1533416E-008  0.3750774E+03  0.7957747E-01  0.3472877E+00
         13   -1    0    0    0    0  0.00000000000E+00  0.00000000000E+00  0.14999999963E+04  0.15000000000E+04  0.10566000000E+00 0. -1.
        994   -1    0    0    0    0 -0.00000000000E+00 -0.00000000000E+00  0.11368683772E-12  0.17120000000E+03  0.17120000000E+03 0.  0.
         13    1    1    2    0    0  0.51420185674E+01  0.52586088314E+02  0.18259093100E+03  0.19008207777E+03  0.10566000000E+00 0. -1.
        994    1    1    2    0    0  0.93369106773E+00 -0.54326800695E+02  0.16738663632E+02  0.18039372471E+03  0.17120000000E+03 0.  0.
        998    1    1    2    0    0 -0.60757096351E+01  0.17407123805E+01  0.13006704016E+04  0.13007241975E+04  0.10000000000E+02 0. -1.
</event>
<event>
 5    1  0.1533416E-008  0.3778775E+03  0.7957747E-01  0.3460453E+00
         13   -1    0    0    0    0  0.00000000000E+00  0.00000000000E+00  0.14999999963E+04  0.15000000000E+04  0.10566000000E+00 0. -1.
        994   -1    0    0    0    0 -0.00000000000E+00 -0.00000000000E+00  0.11368683772E-12  0.17120000000E+03  0.17120000000E+03 0.  0.
         13    1    1    2    0    0  0.23078669087E+02  0.33826942922E+02  0.19506084631E+03  0.19931289964E+03  0.10566000000E+00 0. -1.
        994    1    1    2    0    0  0.60676947599E+01  0.32339490194E+01  0.53675767666E+01  0.17142207042E+03  0.17120000000E+03 0.  0.
        998    1    1    2    0    0 -0.29146363847E+02 -0.37060891942E+02  0.12995715732E+04  0.13004650299E+04  0.10000000000E+02 0. -1.
</event>
<event>
 5    1  0.1533416E-008  0.3688614E+03  0.7957747E-01  0.3501140E+00
         13   -1    0    0    0    0  0.00000000000E+00  0.00000000000E+00  0.14999999963E+04  0.15000000000E+04  0.10566000000E+00 0.  1.
        994   -1    0    0    0    0 -0.00000000000E+00 -0.00000000000E+00  0.11368683772E-12  0.17120000000E+03  0.17120000000E+03 0.  0.
         13    1    1    2    0    0 -0.60025501552E+02 -0.18844790685E+03  0.62314796885E+03  0.65378060286E+03  0.10566000000E+00 0.  1.
        994    1    1    2    0    0  0.67843957347E+02  0.21934901463E+03  0.22369452489E+03  0.36340813589E+03  0.17120000000E+03 0.  0.
        998    1    1    2    0    0 -0.78184557947E+01 -0.30901107784E+02  0.65315750254E+03  0.65401126124E+03  0.10000000000E+02 0. -1.
</event>
<event>
 5    1  0.1533416E-008  0.3838946E+03  0.7957747E-01  0.3434374E+00
         13   -1    0    0    0    0  0.00000000000E+00  0.00000000000E+00  0.14999999963E+04  0.15000000000E+04  0.10566000000E+00 0.  1.
        994   -1    0    0    0    0 -0.00000000000E+00 -0.00000000000E+00  0.11368683772E-12  0.17120000000E+03  0.17120000000E+03 0.  0.
         13    1    1    2    0    0  0.13634431726E+02 -0.34116799131E+01  0.48592856711E+02  0.50584722750E+02  0.10566000000E+00 0.  1.
        994    1    1    2    0    0  0.82127230264E+01  0.26464822652E+01  0.24257269800E+01  0.17143446806E+03  0.17120000000E+03 0.  0.
        998    1    1    2    0    0 -0.21847154752E+02  0.76519764785E+00  0.14489814126E+04  0.14491808092E+04  0.10000000000E+02 0.  1.
</event>
<event>
 5    1  0.1533416E-008  0.3815269E+03  0.7957747E-01  0.3444537E+00
         13   -1    0    0    0    0  0.00000000000E+00  0.00000000000E+00  0.14999999963E+04  0.15000000000E+04  0.10566000000E+00 0. -1.
        994   -1    0    0    0    0 -0.00000000000E+00 -0.00000000000E+00  0.11368683772E-12  0.17120000000E+03  0.17120000000E+03 0.  0.
         13    1    1    2    0    0  0.49431064505E+02 -0.90231842155E+02  0.56299805187E+03  0.57232161680E+03  0.10566000000E+00 0. -1.
        994    1    1    2    0    0  0.68015251727E+02  0.37119900234E+02  0.39388534782E+02  0.19200223471E+03  0.17120000000E+03 0.  0.
        998    1    1    2    0    0 -0.11744631623E+03  0.53111941922E+02  0.89761340962E+03  0.90687614849E+03  0.10000000000E+02 0. -1.
</event>
<event>
 5    1  0.1533416E-008  0.3775487E+03  0.7957747E-01  0.3461902E+00
         13   -1    0    0    0    0  0.00000000000E+00  0.00000000000E+00  0.14999999963E+04  0.15000000000E+04  0.10566000000E+00 0. -1.
        994   -1    0    0    0    0 -0.00000000000E+00 -0.00000000000E+00  0.11368683772E-12  0.17120000000E+03  0.17120000000E+03 0.  0.
         13    1    1    2    0    0 -0.73027932444E+02  0.29364633007E+02  0.44073181648E+03  0.44770515500E+03  0.10566000000E+00 0. -1.
        994    1    1    2    0    0  0.62546447892E+02 -0.35231523028E+02  0.22945313254E+02  0.18705412521E+03  0.17120000000E+03 0.  0.
        998    1    1    2    0    0  0.10481484552E+02  0.58668900206E+01  0.10363228665E+04  0.10364407198E+04  0.10000000000E+02 0. -1.
</event>
<event>
 5    1  0.1533416E-008  0.3760375E+03  0.7957747E-01  0.3468595E+00
         13   -1    0    0    0    0  0.00000000000E+00  0.00000000000E+00  0.14999999963E+04  0.15000000000E+04  0.10566000000E+00 0. -1.
        994   -1    0    0    0    0 -0.00000000000E+00 -0.00000000000E+00  0.11368683772E-12  0.17120000000E+03  0.17120000000E+03 0.  0.
         13    1    1    2    0    0  0.30259088953E+02  0.26463520922E+01  0.70554471685E+02  0.76815104521E+02  0.10566000000E+00 0. -1.
        994    1    1    2    0    0 -0.27614524016E+02  0.47757514357E+00  0.87350413528E+01  0.17363332331E+03  0.17120000000E+03 0.  0.
        998    1    1    2    0    0 -0.26445649369E+01 -0.31239272358E+01  0.14207104832E+04  0.14207515722E+04  0.10000000000E+02 0. -1.
</event>
<event>
 5    1  0.1533416E-008  0.3850272E+03  0.7957747E-01  0.3429557E+00
         13   -1    0    0    0    0  0.00000000000E+00  0.00000000000E+00  0.14999999963E+04  0.15000000000E+04  0.10566000000E+00 0. -1.
        994   -1    0    0    0    0 -0.00000000000E+00 -0.00000000000E+00  0.11368683772E-12  0.17120000000E+03  0.17120000000E+03 0.  0.
         13    1    1    2    0    0  0.16604867900E+02  0.66447879697E+01  0.10694089343E+03  0.10842619931E+03  0.10566000000E+00 0. -1.
        994    1    1    2    0    0  0.33878714730E+01 -0.15331914976E+02  0.24277744695E+01  0.17193568384E+03  0.17120000000E+03 0.  0.
        998    1    1    2    0    0 -0.19992739373E+02  0.86871270061E+01  0.13906313284E+04  0.13908381168E+04  0.10000000000E+02 0. -1.
</event>
<event>
 5    1  0.1533416E-008  0.3862381E+03  0.7957747E-01  0.3424438E+00
         13   -1    0    0    0    0  0.00000000000E+00  0.00000000000E+00  0.14999999963E+04  0.15000000000E+04  0.10566000000E+00 0.  1.
        994   -1    0    0    0    0 -0.00000000000E+00 -0.00000000000E+00  0.11368683772E-12  0.17120000000E+03  0.17120000000E+03 0.  0.
         13    1    1    2    0    0  0.12186660534E+02 -0.89488953720E+01  0.84305900223E+02  0.85650997658E+02  0.10566000000E+00 0.  1.
        994    1    1    2    0    0 -0.32614321126E+02  0.32045239720E+02  0.78945351597E+01  0.17737630906E+03  0.17120000000E+03 0.  0.
        998    1    1    2    0    0  0.20427660591E+02 -0.23096344348E+02  0.14077995609E+04  0.14081726933E+04  0.10000000000E+02 0.  1.
</event>
<event>
 5    1  0.1533416E-008  0.3851379E+03  0.7957747E-01  0.3429088E+00
         13   -1    0    0    0    0  0.00000000000E+00  0.00000000000E+00  0.14999999963E+04  0.15000000000E+04  0.10566000000E+00 0. -1.
        994   -1    0    0    0    0 -0.00000000000E+00 -0.00000000000E+00  0.11368683772E-12  0.17120000000E+03  0.17120000000E+03 0.  0.
         13    1    1    2    0    0  0.13963139243E+02 -0.15246301340E+00  0.61766258329E+02  0.63325147725E+02  0.10566000000E+00 0. -1.
        994    1    1    2    0    0 -0.11156520776E+02 -0.36891868109E+00  0.19713883413E+01  0.17157485372E+03  0.17120000000E+03 0.  0.
        998    1    1    2    0    0 -0.28066184679E+01  0.52138169449E+00  0.14362623496E+04  0.14362999986E+04  0.10000000000E+02 0. -1.
</event>
<event>
 5    1  0.2211355E-008  0.3860750E+03  0.7957747E-01  0.3425126E+00
         13   -1    0    0    0    0  0.00000000000E+00  0.00000000000E+00  0.14999999963E+04  0.15000000000E+04  0.10566000000E+00 0. -1.
        994   -1    0    0    0    0 -0.00000000000E+00 -0.00000000000E+00  0.11368683772E-12  0.17120000000E+03  0.17120000000E+03 0.  0.
         13    1    1    2    0    0 -0.12218638660E+02  0.45566781326E+00  0.70738221847E+02  0.71787254843E+02  0.10566000000E+00 0. -1.
        994    1    1    2    0    0  0.48812539351E+01 -0.43998748073E+01  0.12388975904E+01  0.17133055888E+03  0.17120000000E+03 0.  0.
        998    1    1    2    0    0  0.73373847246E+01  0.39442069940E+01  0.14280228768E+04  0.14280821863E+04  0.10000000000E+02 0. -1.
</event>
<event>
 5    1  0.1533416E-008  0.3843652E+03  0.7957747E-01  0.3432369E+00
         13   -1    0    0    0    0  0.00000000000E+00  0.00000000000E+00  0.14999999963E+04  0.15000000000E+04  0.10566000000E+00 0. -1.
        994   -1    0    0    0    0 -0.00000000000E+00 -0.00000000000E+00  0.11368683772E-12  0.17120000000E+03  0.17120000000E+03 0.  0.
         13    1    1    2    0    0  0.30485307837E+02  0.22949110881E+02  0.33080357292E+02  0.50500860257E+02  0.10566000000E+00 0. -1.
        994    1    1    2    0    0  0.70448473694E+01 -0.23021566772E+02  0.20883253017E+02  0.17414124344E+03  0.17120000000E+03 0.  0.
        998    1    1    2    0    0 -0.37530155206E+02  0.72455890776E-01  0.14460363860E+04  0.14465578963E+04  0.10000000000E+02 0. -1.
</event>
<event>
 5    1  0.1533416E-008  0.3838592E+03  0.7957747E-01  0.3434525E+00
         13   -1    0    0    0    0  0.00000000000E+00  0.00000000000E+00  0.14999999963E+04  0.15000000000E+04  0.10566000000E+00 0. -1.
        994   -1    0    0    0    0 -0.00000000000E+00 -0.00000000000E+00  0.11368683772E-12  0.17120000000E+03  0.17120000000E+03 0.  0.
         13    1    1    2    0    0  0.18156560175E+02 -0.75438445415E+01  0.79969441257E+02  0.82351035008E+02  0.10566000000E+00 0. -1.
        994    1    1    2    0    0 -0.27974317870E+02  0.42743790084E+01  0.48455103202E+01  0.17359075939E+03  0.17120000000E+03 0.  0.
        998    1    1    2    0    0  0.98177576958E+01  0.32694655330E+01  0.14151850447E+04  0.14152582056E+04  0.10000000000E+02 0. -1.
</event>
<event>
 5    1  0.1533416E-008  0.3720065E+03  0.7957747E-01  0.3486720E+00
         13   -1    0    0    0    0  0.00000000000E+00  0.00000000000E+00  0.14999999963E+04  0.15000000000E+04  0.10566000000E+00 0.  1.
        994   -1    0    0    0    0 -0.00000000000E+00 -0.00000000000E+00  0.11368683772E-12  0.17120000000E+03  0.17120000000E+03 0.  0.
         13    1    1    2    0    0  0.26762822411E+02  0.14713771961E+01  0.24177852696E+02  0.36096999034E+02  0.10566000000E+00 0.  1.
        994    1    1    2    0    0 -0.32702334386E+02  0.42380773001E+01  0.15841781877E+02  0.17506514795E+03  0.17120000000E+03 0.  0.
        998    1    1    2    0    0  0.59395119753E+01 -0.57094544963E+01  0.14599803617E+04  0.14600378530E+04  0.10000000000E+02 0.  1.
</event>
<event>
 5    1  0.1533416E-008  0.3697470E+03  0.7957747E-01  0.3497055E+00
         13   -1    0    0    0    0  0.00000000000E+00  0.00000000000E+00  0.14999999963E+04  0.15000000000E+04  0.10566000000E+00 0. -1.
        994   -1    0    0    0    0 -0.00000000000E+00 -0.00000000000E+00  0.11368683772E-12  0.17120000000E+03  0.17120000000E+03 0.  0.
         13    1    1    2    0    0 -0.12023136255E+02 -0.37802299734E+01  0.43501132926E+01  0.13333438932E+02  0.10566000000E+00 0. -1.
        994    1    1    2    0    0 -0.56948704345E+01 -0.11814897158E+02  0.99969123908E+01  0.17199244635E+03  0.17120000000E+03 0.  0.
        998    1    1    2    0    0  0.17718006689E+02  0.15595127131E+02  0.14856529706E+04  0.14858741147E+04  0.10000000000E+02 0. -1.
</event>
<event>
 5    1  0.1533416E-008  0.3843455E+03  0.7957747E-01  0.3432453E+00
         13   -1    0    0    0    0  0.00000000000E+00  0.00000000000E+00  0.14999999963E+04  0.15000000000E+04  0.10566000000E+00 0. -1.
        994   -1    0    0    0    0 -0.00000000000E+00 -0.00000000000E+00  0.11368683772E-12  0.17120000000E+03  0.17120000000E+03 0.  0.
         13    1    1    2    0    0 -0.37454475753E+01  0.20583319382E+02  0.10557856367E+03  0.10763152738E+03  0.10566000000E+00 0. -1.
        994    1    1    2    0    0  0.19403696799E+00 -0.21013889027E+02  0.34122120555E+01  0.17251870731E+03  0.17120000000E+03 0.  0.
        998    1    1    2    0    0  0.35514106073E+01  0.43056964437E+00  0.13910092206E+04  0.13910497653E+04  0.10000000000E+02 0. -1.
</event>
<event>
 5    1  0.1533416E-008  0.3808708E+03  0.7957747E-01  0.3447376E+00
         13   -1    0    0    0    0  0.00000000000E+00  0.00000000000E+00  0.14999999963E+04  0.15000000000E+04  0.10566000000E+00 0.  1.
        994   -1    0    0    0    0 -0.00000000000E+00 -0.00000000000E+00  0.11368683772E-12  0.17120000000E+03  0.17120000000E+03 0.  0.
         13    1    1    2    0    0  0.27006109835E+02 -0.27724541550E+02  0.16855688162E+03  0.17294338286E+03  0.10566000000E+00 0.  1.
        994    1    1    2    0    0 -0.56450877394E+02  0.14360448764E+02  0.15087832873E+02  0.18146626890E+03  0.17120000000E+03 0.  0.
        998    1    1    2    0    0  0.29444767559E+02  0.13364092785E+02  0.13163552818E+04  0.13167903482E+04  0.10000000000E+02 0.  1.
</event>
<event>
 5    1  0.1533416E-008  0.3857393E+03  0.7957747E-01  0.3426543E+00
         13   -1    0    0    0    0  0.00000000000E+00  0.00000000000E+00  0.14999999963E+04  0.15000000000E+04  0.10566000000E+00 0. -1.
        994   -1    0    0    0    0 -0.00000000000E+00 -0.00000000000E+00  0.11368683772E-12  0.17120000000E+03  0.17120000000E+03 0.  0.
         13    1    1    2    0    0  0.26775741014E+01  0.10142233924E+02  0.45981386185E+02  0.47162838672E+02  0.10566000000E+00 0. -1.
        994    1    1    2    0    0  0.37822186324E+01 -0.28100108348E+00  0.13107180243E+01  0.17124702077E+03  0.17120000000E+03 0.  0.
        998    1    1    2    0    0 -0.64597927338E+01 -0.98612328409E+01  0.14527078921E+04  0.14527901406E+04  0.10000000000E+02 0. -1.
</event>
<event>
 5    1  0.1533416E-008  0.3821783E+03  0.7957747E-01  0.3441728E+00
         13   -1    0    0    0    0  0.00000000000E+00  0.00000000000E+00  0.14999999963E+04  0.15000000000E+04  0.10566000000E+00 0.  1.
        994   -1    0    0    0    0 -0.00000000000E+00 -0.00000000000E+00  0.11368683772E-12  0.17120000000E+03  0.17120000000E+03 0.  0.
         13    1    1    2    0    0 -0.15855449682E+02 -0.78456901976E+01  0.54309552007E+02  0.57118199749E+02  0.10566000000E+00 0.  1.
        994    1    1    2    0    0 -0.39875780740E+01 -0.27428634481E+01  0.31153517660E+01  0.17129672938E+03  0.17120000000E+03 0.  0.
        998    1    1    2    0    0  0.19843027756E+02  0.10588553646E+02  0.14425750925E+04  0.14427850709E+04  0.10000000000E+02 0.  1.
</event>
<event>
 5    1  0.1533416E-008  0.3820216E+03  0.7957747E-01  0.3442403E+00
         13   -1    0    0    0    0  0.00000000000E+00  0.00000000000E+00  0.14999999963E+04  0.15000000000E+04  0.10566000000E+00 0.  1.
        994   -1    0    0    0    0 -0.00000000000E+00 -0.00000000000E+00  0.11368683772E-12  0.17120000000E+03  0.17120000000E+03 0.  0.
         13    1    1    2    0    0  0.16501070477E+02  0.17094481674E+02  0.88374623738E+02  0.91512796457E+02  0.10566000000E+00 0.  1.
        994    1    1    2    0    0 -0.10651317375E+02 -0.13672940427E+02  0.41142849172E+01  0.17212427836E+03  0.17120000000E+03 0.  0.
        998    1    1    2    0    0 -0.58497531023E+01 -0.34215412472E+01  0.14075110876E+04  0.14075629252E+04  0.10000000000E+02 0.  1.
</event>
<event>
 5    1  0.1533416E-008  0.3832322E+03  0.7957747E-01  0.3437204E+00
         13   -1    0    0    0    0  0.00000000000E+00  0.00000000000E+00  0.14999999963E+04  0.15000000000E+04  0.10566000000E+00 0.  1.
        994   -1    0    0    0    0 -0.00000000000E+00 -0.00000000000E+00  0.11368683772E-12  0.17120000000E+03  0.17120000000E+03 0.  0.
         13    1    1    2    0    0  0.17856044259E+02 -0.27996852048E+01  0.62036097295E+02  0.64615517374E+02  0.10566000000E+00 0.  1.
        994    1    1    2    0    0 -0.18625210112E+02  0.39906080693E+01  0.37113431973E+01  0.17229636523E+03  0.17120000000E+03 0.  0.
        998    1    1    2    0    0  0.76916585214E+00 -0.11909228645E+01  0.14342525558E+04  0.14342881174E+04  0.10000000000E+02 0.  1.
</event>
<event>
 5    1  0.1533416E-008  0.3741108E+03  0.7957747E-01  0.3477209E+00
         13   -1    0    0    0    0  0.00000000000E+00  0.00000000000E+00  0.14999999963E+04  0.15000000000E+04  0.10566000000E+00 0.  1.
        994   -1    0    0    0    0 -0.00000000000E+00 -0.00000000000E+00  0.11368683772E-12  0.17120000000E+03  0.17120000000E+03 0.  0.
         13    1    1    2    0    0  0.19871382815E+02 -0.69688602304E+02  0.32552695985E+03  0.33349540612E+03  0.10566000000E+00 0.  1.
        994    1    1    2    0    0  0.15571436948E+02  0.65054966688E+02  0.22548608507E+02  0.18518233740E+03  0.17120000000E+03 0.  0.
        998    1    1    2    0    0 -0.35442819763E+02  0.46336356156E+01  0.11519244279E+04  0.11525222565E+04  0.10000000000E+02 0.  1.
</event>
<event>
 5    1  0.1533416E-008  0.3693550E+03  0.7957747E-01  0.3498860E+00
         13   -1    0    0    0    0  0.00000000000E+00  0.00000000000E+00  0.14999999963E+04  0.15000000000E+04  0.10566000000E+00 0.  1.
        994   -1    0    0    0    0 -0.00000000000E+00 -0.00000000000E+00  0.11368683772E-12  0.17120000000E+03  0.17120000000E+03 0.  0.
         13    1    1    2    0    0 -0.37970506416E+02  0.10294357751E+03  0.44012988980E+03  0.45360056280E+03  0.10566000000E+00 0.  1.
        994    1    1    2    0    0  0.38241472740E+02 -0.10004320466E+03  0.50479911631E+02  0.20815550561E+03  0.17120000000E+03 0.  0.
        998    1    1    2    0    0 -0.27096632370E+00 -0.29003728516E+01  0.10093901948E+04  0.10094439316E+04  0.10000000000E+02 0.  1.
</event>
<event>
 5    1  0.1533416E-008  0.3762820E+03  0.7957747E-01  0.3467509E+00
         13   -1    0    0    0    0  0.00000000000E+00  0.00000000000E+00  0.14999999963E+04  0.15000000000E+04  0.10566000000E+00 0. -1.
        994   -1    0    0    0    0 -0.00000000000E+00 -0.00000000000E+00  0.11368683772E-12  0.17120000000E+03  0.17120000000E+03 0.  0.
         13    1    1    2    0    0  0.53029442879E+02 -0.38650758368E+02  0.36146923321E+03  0.36737721847E+03  0.10566000000E+00 0. -1.
        994    1    1    2    0    0 -0.10686752248E+02  0.49175886410E+02  0.14641753396E+02  0.17904271954E+03  0.17120000000E+03 0.  0.
        998    1    1    2    0    0 -0.42342690631E+02 -0.10525128042E+02  0.11238890097E+04  0.11247800620E+04  0.10000000000E+02 0. -1.
</event>
<event>
 5    1  0.1533416E-008  0.3777012E+03  0.7957747E-01  0.3461229E+00
         13   -1    0    0    0    0  0.00000000000E+00  0.00000000000E+00  0.14999999963E+04  0.15000000000E+04  0.10566000000E+00 0.  1.
        994   -1    0    0    0    0 -0.00000000000E+00 -0.00000000000E+00  0.11368683772E-12  0.17120000000E+03  0.17120000000E+03 0.  0.
         13    1    1    2    0    0  0.72520217582E+01  0.19414116149E+03  0.10049898926E+04  0.10235956613E+04  0.10566000000E+00 0.  1.
        994    1    1    2    0    0 -0.16398184456E+02 -0.18948336757E+03  0.13881630262E+03  0.29112240194E+03  0.17120000000E+03 0.  0.
        998    1    1    2    0    0  0.91461626975E+01 -0.46577939184E+01  0.35619380103E+03  0.35648193675E+03  0.10000000000E+02 0. -1.
</event>
<event>
 5    1  0.1533416E-008  0.3818363E+03  0.7957747E-01  0.3443201E+00
         13   -1    0    0    0    0  0.00000000000E+00  0.00000000000E+00  0.14999999963E+04  0.15000000000E+04  0.10566000000E+00 0. -1.
        994   -1    0    0    0    0 -0.00000000000E+00 -0.00000000000E+00  0.11368683772E-12  0.17120000000E+03  0.17120000000E+03 0.  0.
         13    1    1    2    0    0 -0.35757484021E+02 -0.19345661103E+02  0.23041996190E+03  0.23397910648E+03  0.10566000000E+00 0. -1.
        994    1    1    2    0    0  0.28905655386E+02  0.21288892897E+02  0.75030895366E+01  0.17508423752E+03  0.17120000000E+03 0.  0.
        998    1    1    2    0    0  0.68518286343E+01 -0.19432317938E+01  0.12620769448E+04  0.12621366560E+04  0.10000000000E+02 0. -1.
</event>
<event>
 5    1  0.1533416E-008  0.3784249E+03  0.7957747E-01  0.3458046E+00
         13   -1    0    0    0    0  0.00000000000E+00  0.00000000000E+00  0.14999999963E+04  0.15000000000E+04  0.10566000000E+00 0.  1.
        994   -1    0    0    0    0 -0.00000000000E+00 -0.00000000000E+00  0.11368683772E-12  0.17120000000E+03  0.17120000000E+03 0.  0.
         13    1    1    2    0    0 -0.40844889622E+02  0.25652383033E+02  0.72414444459E+02  0.87006969226E+02  0.10566000000E+00 0.  1.
        994    1    1    2    0    0  0.20528120859E+02 -0.45994799053E+01  0.17060720089E+02  0.17332936027E+03  0.17120000000E+03 0.  0.
        998    1    1    2    0    0  0.20316768763E+02 -0.21052903127E+02  0.14105248317E+04  0.14108636705E+04  0.10000000000E+02 0.  1.
</event>
<event>
 5    1  0.1533416E-008  0.3823429E+03  0.7957747E-01  0.3441020E+00
         13   -1    0    0    0    0  0.00000000000E+00  0.00000000000E+00  0.14999999963E+04  0.15000000000E+04  0.10566000000E+00 0.  1.
        994   -1    0    0    0    0 -0.00000000000E+00 -0.00000000000E+00  0.11368683772E-12  0.17120000000E+03  0.17120000000E+03 0.  0.
         13    1    1    2    0    0  0.44347531182E+01 -0.12105717569E+02  0.26016839440E+02  0.29036227915E+02  0.10566000000E+00 0.  1.
        994    1    1    2    0    0 -0.10852391576E+01  0.21499953293E+02  0.44939197346E+01  0.17260666572E+03  0.17120000000E+03 0.  0.
        998    1    1    2    0    0 -0.33495139606E+01 -0.93942357246E+01  0.14694892371E+04  0.14695571064E+04  0.10000000000E+02 0.  1.
</event>
<event>
 5    1  0.1533416E-008  0.3737225E+03  0.7957747E-01  0.3478956E+00
         13   -1    0    0    0    0  0.00000000000E+00  0.00000000000E+00  0.14999999963E+04  0.15000000000E+04  0.10566000000E+00 0.  1.
        994   -1    0    0    0    0 -0.00000000000E+00 -0.00000000000E+00  0.11368683772E-12  0.17120000000E+03  0.17120000000E+03 0.  0.
         13    1    1    2    0    0 -0.37852590084E+02  0.36591384029E+02  0.98413373000E+02  0.11161071235E+03  0.10566000000E+00 0.  1.
        994    1    1    2    0    0  0.64286602201E+02 -0.98561205712E+00  0.27711681740E+02  0.18496247176E+03  0.17120000000E+03 0.  0.
        998    1    1    2    0    0 -0.26434012116E+02 -0.35605771972E+02  0.13738749415E+04  0.13746268159E+04  0.10000000000E+02 0.  1.
</event>
<event>
 5    1  0.1533416E-008  0.3838080E+03  0.7957747E-01  0.3434744E+00
         13   -1    0    0    0    0  0.00000000000E+00  0.00000000000E+00  0.14999999963E+04  0.15000000000E+04  0.10566000000E+00 0. -1.
        994   -1    0    0    0    0 -0.00000000000E+00 -0.00000000000E+00  0.11368683772E-12  0.17120000000E+03  0.17120000000E+03 0.  0.
         13    1    1    2    0    0 -0.31949128493E+01 -0.12499172868E+02  0.37119819593E+02  0.39297951106E+02  0.10566000000E+00 0. -1.
        994    1    1    2    0    0  0.38321805255E+01  0.61321459023E+01  0.23957719567E+01  0.17136939209E+03  0.17120000000E+03 0.  0.
        998    1    1    2    0    0 -0.63726767622E+00  0.63670269659E+01  0.14604844047E+04  0.14605326568E+04  0.10000000000E+02 0. -1.
</event>
<event>
 5    1  0.1533416E-008  0.3832428E+03  0.7957747E-01  0.3437159E+00
         13   -1    0    0    0    0  0.00000000000E+00  0.00000000000E+00  0.14999999963E+04  0.15000000000E+04  0.10566000000E+00 0. -1.
        994   -1    0    0    0    0 -0.00000000000E+00 -0.00000000000E+00  0.11368683772E-12  0.17120000000E+03  0.17120000000E+03 0.  0.
         13    1    1    2    0    0 -0.18736326146E+01 -0.15648838776E+02  0.54641165621E+02  0.56868838555E+02  0.10566000000E+00 0. -1.
        994    1    1    2    0    0 -0.25161207102E+02 -0.91976387067E+01  0.48824022078E+01  0.17335212935E+03  0.17120000000E+03 0.  0.
        998    1    1    2    0    0  0.27034839716E+02  0.24846477482E+02  0.14404764285E+04  0.14409790321E+04  0.10000000000E+02 0. -1.
</event>
<event>
 5    1  0.1533416E-008  0.3745143E+03  0.7957747E-01  0.3475398E+00
         13   -1    0    0    0    0  0.00000000000E+00  0.00000000000E+00  0.14999999963E+04  0.15000000000E+04  0.10566000000E+00 0. -1.
        994   -1    0    0    0    0 -0.00000000000E+00 -0.00000000000E+00  0.11368683772E-12  0.17120000000E+03  0.17120000000E+03 0.  0.
         13    1    1    2    0    0  0.72971216080E+02 -0.43244839919E+02  0.42073629482E+03  0.42920153250E+03  0.10566000000E+00 0. -1.
        994    1    1    2    0    0 -0.63456991745E+02  0.33353976203E+02  0.24633089888E+02  0.18723115832E+03  0.17120000000E+03 0.  0.
        998    1    1    2    0    0 -0.95142243349E+01  0.98908637161E+01  0.10546306116E+04  0.10547673092E+04  0.10000000000E+02 0. -1.
</event>
<event>
 5    1  0.1533416E-008  0.3819205E+03  0.7957747E-01  0.3442838E+00
         13   -1    0    0    0    0  0.00000000000E+00  0.00000000000E+00  0.14999999963E+04  0.15000000000E+04  0.10566000000E+00 0.  1.
        994   -1    0    0    0    0 -0.00000000000E+00 -0.00000000000E+00  0.11368683772E-12  0.17120000000E+03  0.17120000000E+03 0.  0.
         13    1    1    2    0    0  0.78269125260E+01 -0.96157993563E+01  0.23991865184E+02  0.27006386577E+02  0.10566000000E+00 0.  1.
        994    1    1    2    0    0  0.15737010186E+01 -0.43687776196E+01  0.32384371891E+01  0.17129357906E+03  0.17120000000E+03 0.  0.
        998    1    1    2    0    0 -0.94006135446E+01  0.13984576976E+02  0.14727696939E+04  0.14729000344E+04  0.10000000000E+02 0.  1.
</event>
<event>
 5    1  0.1533416E-008  0.3810607E+03  0.7957747E-01  0.3446553E+00
         13   -1    0    0    0    0  0.00000000000E+00  0.00000000000E+00  0.14999999963E+04  0.15000000000E+04  0.10566000000E+00 0. -1.
        994   -1    0    0    0    0 -0.00000000000E+00 -0.00000000000E+00  0.11368683772E-12  0.17120000000E+03  0.17120000000E+03 0.  0.
         13    1    1    2    0    0 -0.16531038214E+02 -0.10260843069E+02  0.35689529322E+01  0.19781524561E+02  0.10566000000E+00 0. -1.
        994    1    1    2    0    0  0.13724198581E+02  0.18005878509E+02  0.18777772879E+02  0.17370840521E+03  0.17120000000E+03 0.  0.
        998    1    1    2    0    0  0.28068396322E+01 -0.77450354405E+01  0.14776532705E+04  0.14777100702E+04  0.10000000000E+02 0. -1.
</event>
<event>
 5    1  0.1533416E-008  0.3807587E+03  0.7957747E-01  0.3447862E+00
         13   -1    0    0    0    0  0.00000000000E+00  0.00000000000E+00  0.14999999963E+04  0.15000000000E+04  0.10566000000E+00 0.  1.
        994   -1    0    0    0    0 -0.00000000000E+00 -0.00000000000E+00  0.11368683772E-12  0.17120000000E+03  0.17120000000E+03 0.  0.
         13    1    1    2    0    0  0.13438656960E+02 -0.75961382172E+01  0.30453655250E+02  0.34142863074E+02  0.10566000000E+00 0.  1.
        994    1    1    2    0    0 -0.55267930891E+01  0.85509801040E+01  0.40963979426E+01  0.17155140681E+03  0.17120000000E+03 0.  0.
        998    1    1    2    0    0 -0.79118638711E+01 -0.95484188677E+00  0.14654499431E+04  0.14655057301E+04  0.10000000000E+02 0.  1.
</event>
<event>
 5    1  0.1533416E-008  0.3803394E+03  0.7957747E-01  0.3449682E+00
         13   -1    0    0    0    0  0.00000000000E+00  0.00000000000E+00  0.14999999963E+04  0.15000000000E+04  0.10566000000E+00 0. -1.
        994   -1    0    0    0    0 -0.00000000000E+00 -0.00000000000E+00  0.11368683772E-12  0.17120000000E+03  0.17120000000E+03 0.  0.
         13    1    1    2    0    0 -0.61118216303E+01  0.98696834977E+01  0.15903156671E+02  0.19689758052E+02  0.10566000000E+00 0. -1.
        994    1    1    2    0    0  0.59602061465E+01  0.11315212795E+02  0.45082508017E+01  0.17173620010E+03  0.17120000000E+03 0.  0.
        998    1    1    2    0    0  0.15161548386E+00 -0.21184896292E+02  0.14795885888E+04  0.14797740419E+04  0.10000000000E+02 0. -1.
</event>
<event>
 5    1  0.1533416E-008  0.3733743E+03  0.7957747E-01  0.3480525E+00
         13   -1    0    0    0    0  0.00000000000E+00  0.00000000000E+00  0.14999999963E+04  0.15000000000E+04  0.10566000000E+00 0. -1.
        994   -1    0    0    0    0 -0.00000000000E+00 -0.00000000000E+00  0.11368683772E-12  0.17120000000E+03  0.17120000000E+03 0.  0.
         13    1    1    2    0    0  0.19115680608E+03  0.70069827571E+02  0.68980044021E+03  0.71921857854E+03  0.10566000000E+00 0. -1.
        994    1    1    2    0    0 -0.22445212519E+03 -0.76204365263E+02  0.23346467906E+03  0.37416715270E+03  0.17120000000E+03 0.  0.
        998    1    1    2    0    0  0.33295319111E+02  0.61345376923E+01  0.57673487701E+03  0.57781426876E+03  0.10000000000E+02 0. -1.
</event>
<event>
 5    1  0.1533416E-008  0.3764071E+03  0.7957747E-01  0.3466954E+00
         13   -1    0    0    0    0  0.00000000000E+00  0.00000000000E+00  0.14999999963E+04  0.15000000000E+04  0.10566000000E+00 0. -1.
        994   -1    0    0    0    0 -0.00000000000E+00 -0.00000000000E+00  0.11368683772E-12  0.17120000000E+03  0.17120000000E+03 0.  0.
         13    1    1    2    0    0  0.70281720866E+01 -0.14331367282E+02  0.18899112530E+02  0.24738045790E+02  0.10566000000E+00 0. -1.
        994    1    1    2    0    0 -0.29273277243E+01  0.92855037327E+01  0.62786902321E+01  0.17159152595E+03  0.17120000000E+03 0.  0.
        998    1    1    2    0    0 -0.41008443623E+01  0.50458635496E+01  0.14748221935E+04  0.14748704283E+04  0.10000000000E+02 0. -1.
</event>
<event>
 5    1  0.1533416E-008  0.3750446E+03  0.7957747E-01  0.3473023E+00
         13   -1    0    0    0    0  0.00000000000E+00  0.00000000000E+00  0.14999999963E+04  0.15000000000E+04  0.10566000000E+00 0.  1.
        994   -1    0    0    0    0 -0.00000000000E+00 -0.00000000000E+00  0.11368683772E-12  0.17120000000E+03  0.17120000000E+03 0.  0.
         13    1    1    2    0    0 -0.10639580423E+02  0.21499298791E+02  0.39279535203E+02  0.46025140629E+02  0.10566000000E+00 0.  1.
        994    1    1    2    0    0  0.13388010475E+02 -0.23662141941E+02  0.91719941276E+01  0.17358773362E+03  0.17120000000E+03 0.  0.
        998    1    1    2    0    0 -0.27484300513E+01  0.21628431499E+01  0.14515484669E+04  0.14515871258E+04  0.10000000000E+02 0.  1.
</event>
<event>
 5    1  0.1533416E-008  0.3797039E+03  0.7957747E-01  0.3452449E+00
         13   -1    0    0    0    0  0.00000000000E+00  0.00000000000E+00  0.14999999963E+04  0.15000000000E+04  0.10566000000E+00 0.  1.
        994   -1    0    0    0    0 -0.00000000000E+00 -0.00000000000E+00  0.11368683772E-12  0.17120000000E+03  0.17120000000E+03 0.  0.
         13    1    1    2    0    0 -0.39352487388E+02 -0.35474969196E+00  0.20265380759E+03  0.20643963041E+03  0.10566000000E+00 0.  1.
        994    1    1    2    0    0  0.65018232997E+01  0.10139474388E+02  0.47683169692E+01  0.17168942744E+03  0.17120000000E+03 0.  0.
        998    1    1    2    0    0  0.32850664088E+02 -0.97847246961E+01  0.12925778717E+04  0.12930709421E+04  0.10000000000E+02 0.  1.
</event>
<event>
 5    1  0.1533416E-008  0.3770934E+03  0.7957747E-01  0.3463913E+00
         13   -1    0    0    0    0  0.00000000000E+00  0.00000000000E+00  0.14999999963E+04  0.15000000000E+04  0.10566000000E+00 0.  1.
        994   -1    0    0    0    0 -0.00000000000E+00 -0.00000000000E+00  0.11368683772E-12  0.17120000000E+03  0.17120000000E+03 0.  0.
         13    1    1    2    0    0  0.99610011431E+00  0.16441326871E+02  0.20926781276E+02  0.26631762678E+02  0.10566000000E+00 0.  1.
        994    1    1    2    0    0 -0.68423637041E+02 -0.20934527022E+02  0.23089614324E+02  0.18698293724E+03  0.17120000000E+03 0.  0.
        998    1    1    2    0    0  0.67427536926E+02  0.44932001510E+01  0.14559836007E+04  0.14575853001E+04  0.10000000000E+02 0.  1.
</event>
<event>
 5    1  0.1533416E-008  0.3720039E+03  0.7957747E-01  0.3486732E+00
         13   -1    0    0    0    0  0.00000000000E+00  0.00000000000E+00  0.14999999963E+04  0.15000000000E+04  0.10566000000E+00 0.  1.
        994   -1    0    0    0    0 -0.00000000000E+00 -0.00000000000E+00  0.11368683772E-12  0.17120000000E+03  0.17120000000E+03 0.  0.
         13    1    1    2    0    0  0.56361171265E+02 -0.20088602185E+01  0.28338660107E+03  0.28894392877E+03  0.10566000000E+00 0.  1.
        994    1    1    2    0    0  0.86367897786E+02  0.50570449482E+02  0.48158183802E+02  0.20407213136E+03  0.17120000000E+03 0.  0.
        998    1    1    2    0    0 -0.14272906905E+03 -0.48561589264E+02  0.11684552114E+04  0.11781839399E+04  0.10000000000E+02 0.  1.
</event>
<event>
 5    1  0.1533416E-008  0.3757216E+03  0.7957747E-01  0.3470002E+00
         13   -1    0    0    0    0  0.00000000000E+00  0.00000000000E+00  0.14999999963E+04  0.15000000000E+04  0.10566000000E+00 0. -1.
        994   -1    0    0    0    0 -0.00000000000E+00 -0.00000000000E+00  0.11368683772E-12  0.17120000000E+03  0.17120000000E+03 0.  0.
         13    1    1    2    0    0  0.45593798722E+01 -0.12482146565E+02  0.11157176204E+02  0.17351820440E+02  0.10566000000E+00 0. -1.
        994    1    1    2    0    0 -0.83439256408E+01  0.81273575117E+01  0.67688475458E+01  0.17172924134E+03  0.17120000000E+03 0.  0.
        998    1    1    2    0    0  0.37845457686E+01  0.43547890533E+01  0.14820739725E+04  0.14821189382E+04  0.10000000000E+02 0. -1.
</event>
<event>
 5    1  0.1533416E-008  0.3828349E+03  0.7957747E-01  0.3438907E+00
         13   -1    0    0    0    0  0.00000000000E+00  0.00000000000E+00  0.14999999963E+04  0.15000000000E+04  0.10566000000E+00 0.  1.
        994   -1    0    0    0    0 -0.00000000000E+00 -0.00000000000E+00  0.11368683772E-12  0.17120000000E+03  0.17120000000E+03 0.  0.
         13    1    1    2    0    0 -0.13738338155E+01  0.21208717066E+02  0.83487077131E+02  0.86149871217E+02  0.10566000000E+00 0.  1.
        994    1    1    2    0    0 -0.73006774335E+00 -0.11538111765E+02  0.31516785613E+01  0.17161886289E+03  0.17120000000E+03 0.  0.
        998    1    1    2    0    0  0.21039015589E+01 -0.96706053015E+01  0.14133612406E+04  0.14134312659E+04  0.10000000000E+02 0.  1.
</event>
<event>
 5    1  0.1533416E-008  0.3750901E+03  0.7957747E-01  0.3472820E+00
         13   -1    0    0    0    0  0.00000000000E+00  0.00000000000E+00  0.14999999963E+04  0.15000000000E+04  0.10566000000E+00 0. -1.
        994   -1    0    0    0    0 -0.00000000000E+00 -0.00000000000E+00  0.11368683772E-12  0.17120000000E+03  0.17120000000E+03 0.  0.
         13    1    1    2    0    0  0.11165699844E+02 -0.94431611437E+01  0.13054588488E+02  0.19603050529E+02  0.10566000000E+00 0. -1.
        994    1    1    2    0    0 -0.10291618815E+02  0.11040933153E+02  0.74069850496E+01  0.17202361190E+03  0.17120000000E+03 0.  0.
        998    1    1    2    0    0 -0.87408102969E+00 -0.15977720089E+01  0.14795384227E+04  0.14795733376E+04  0.10000000000E+02 0. -1.
</event>
<event>
 5    1  0.1533416E-008  0.3844729E+03  0.7957747E-01  0.3431911E+00
         13   -1    0    0    0    0  0.00000000000E+00  0.00000000000E+00  0.14999999963E+04  0.15000000000E+04  0.10566000000E+00 0. -1.
        994   -1    0    0    0    0 -0.00000000000E+00 -0.00000000000E+00  0.11368683772E-12  0.17120000000E+03  0.17120000000E+03 0.  0.
         13    1    1    2    0    0 -0.98788302742E+01  0.13081943488E+02  0.70116190917E+02  0.72007082469E+02  0.10566000000E+00 0. -1.
        994    1    1    2    0    0  0.13383636576E+02 -0.52849608910E+01  0.25744499996E+01  0.17182293308E+03  0.17120000000E+03 0.  0.
        998    1    1    2    0    0 -0.35048063013E+01 -0.77969825972E+01  0.14273093554E+04  0.14273699844E+04  0.10000000000E+02 0. -1.
</event>
<event>
 5    1  0.1533416E-008  0.3777529E+03  0.7957747E-01  0.3461002E+00
         13   -1    0    0    0    0  0.00000000000E+00  0.00000000000E+00  0.14999999963E+04  0.15000000000E+04  0.10566000000E+00 0. -1.
        994   -1    0    0    0    0 -0.00000000000E+00 -0.00000000000E+00  0.11368683772E-12  0.17120000000E+03  0.17120000000E+03 0.  0.
         13    1    1    2    0    0  0.16378930455E+02 -0.27403129128E+02  0.31040385625E+02  0.44527716679E+02  0.10566000000E+00 0. -1.
        994    1    1    2    0    0 -0.26047940135E+02 -0.49029529489E+02  0.26260595477E+02  0.18188306359E+03  0.17120000000E+03 0.  0.
        998    1    1    2    0    0  0.96690096806E+01  0.76432658617E+02  0.14426990152E+04  0.14447892197E+04  0.10000000000E+02 0.  1.
</event>
<event>
 5    1  0.1533416E-008  0.3791309E+03  0.7957747E-01  0.3454951E+00
         13   -1    0    0    0    0  0.00000000000E+00  0.00000000000E+00  0.14999999963E+04  0.15000000000E+04  0.10566000000E+00 0. -1.
        994   -1    0    0    0    0 -0.00000000000E+00 -0.00000000000E+00  0.11368683772E-12  0.17120000000E+03  0.17120000000E+03 0.  0.
         13    1    1    2    0    0  0.32162032102E+02  0.20943479407E+02  0.14443882016E+03  0.14945102733E+03  0.10566000000E+00 0. -1.
        994    1    1    2    0    0 -0.15968531262E+02 -0.49877279009E+02  0.13823158454E+02  0.17956407397E+03  0.17120000000E+03 0.  0.
        998    1    1    2    0    0 -0.16193500839E+02  0.28933799602E+02  0.13417380177E+04  0.13421848987E+04  0.10000000000E+02 0. -1.
</event>
<event>
 5    1  0.1533416E-008  0.3844639E+03  0.7957747E-01  0.3431949E+00
         13   -1    0    0    0    0  0.00000000000E+00  0.00000000000E+00  0.14999999963E+04  0.15000000000E+04  0.10566000000E+00 0. -1.
        994   -1    0    0    0    0 -0.00000000000E+00 -0.00000000000E+00  0.11368683772E-12  0.17120000000E+03  0.17120000000E+03 0.  0.
         13    1    1    2    0    0  0.16127446908E+02 -0.95783742565E+01  0.92930205717E+02  0.94804399138E+02  0.10566000000E+00 0. -1.
        994    1    1    2    0    0 -0.80891833806E+01  0.86032760777E+01  0.23560860165E+01  0.17162296580E+03  0.17120000000E+03 0.  0.
        998    1    1    2    0    0 -0.80382635278E+01  0.97509817877E+00  0.14047137045E+04  0.14047726351E+04  0.10000000000E+02 0. -1.
</event>
<event>
 5    1  0.1533416E-008  0.3728188E+03  0.7957747E-01  0.3483036E+00
         13   -1    0    0    0    0  0.00000000000E+00  0.00000000000E+00  0.14999999963E+04  0.15000000000E+04  0.10566000000E+00 0. -1.
        994   -1    0    0    0    0 -0.00000000000E+00 -0.00000000000E+00  0.11368683772E-12  0.17120000000E+03  0.17120000000E+03 0.  0.
         13    1    1    2    0    0 -0.70809452369E+02 -0.16391377470E+02  0.23983155784E+03  0.25060295908E+03  0.10566000000E+00 0. -1.
        994    1    1    2    0    0  0.99096734411E+02  0.76423458389E+01  0.42427563449E+02  0.20245519593E+03  0.17120000000E+03 0.  0.
        998    1    1    2    0    0 -0.28287282042E+02  0.87490316311E+01  0.12177408750E+04  0.12181418450E+04  0.10000000000E+02 0. -1.
</event>
<event>
 5    1  0.1533416E-008  0.3807022E+03  0.7957747E-01  0.3448107E+00
         13   -1    0    0    0    0  0.00000000000E+00  0.00000000000E+00  0.14999999963E+04  0.15000000000E+04  0.10566000000E+00 0.  1.
        994   -1    0    0    0    0 -0.00000000000E+00 -0.00000000000E+00  0.11368683772E-12  0.17120000000E+03  0.17120000000E+03 0.  0.
         13    1    1    2    0    0  0.12433612414E+02  0.40157697098E+02  0.20145046836E+03  0.20579003309E+03  0.10566000000E+00 0.  1.
        994    1    1    2    0    0 -0.12865342748E+02 -0.41286116662E+02  0.10041392187E+02  0.17686246077E+03  0.17120000000E+03 0.  0.
        998    1    1    2    0    0  0.43173033408E+00  0.11284195633E+01  0.12885081357E+04  0.12885475061E+04  0.10000000000E+02 0.  0.
</event>
<event>
 5    1  0.1533416E-008  0.3855208E+03  0.7957747E-01  0.3427466E+00
         13   -1    0    0    0    0  0.00000000000E+00  0.00000000000E+00  0.14999999963E+04  0.15000000000E+04  0.10566000000E+00 0.  1.
        994   -1    0    0    0    0 -0.00000000000E+00 -0.00000000000E+00  0.11368683772E-12  0.17120000000E+03  0.17120000000E+03 0.  0.
         13    1    1    2    0    0  0.92071346695E+01  0.77285959248E+01  0.53381071257E+02  0.54717935418E+02  0.10566000000E+00 0.  1.
        994    1    1    2    0    0 -0.70790790116E+00 -0.96394931486E+01  0.16785628415E+01  0.17148084014E+03  0.17120000000E+03 0.  0.
        998    1    1    2    0    0 -0.84992267683E+01  0.19108972238E+01  0.14449403622E+04  0.14450012244E+04  0.10000000000E+02 0.  1.
</event>
<event>
 5    1  0.1533416E-008  0.3856904E+03  0.7957747E-01  0.3426750E+00
         13   -1    0    0    0    0  0.00000000000E+00  0.00000000000E+00  0.14999999963E+04  0.15000000000E+04  0.10566000000E+00 0. -1.
        994   -1    0    0    0    0 -0.00000000000E+00 -0.00000000000E+00  0.11368683772E-12  0.17120000000E+03  0.17120000000E+03 0.  0.
         13    1    1    2    0    0  0.13275106143E+02  0.60016257437E+01  0.84536013259E+02  0.85782263064E+02  0.10566000000E+00 0. -1.
        994    1    1    2    0    0 -0.86126303752E+01  0.13673686327E+01  0.15373469240E+01  0.17142884977E+03  0.17120000000E+03 0.  0.
        998    1    1    2    0    0 -0.46624757682E+01 -0.73689943765E+01  0.14139266361E+04  0.14139888872E+04  0.10000000000E+02 0. -1.
</event>
<event>
 5    1  0.1533416E-008  0.3854314E+03  0.7957747E-01  0.3427845E+00
         13   -1    0    0    0    0  0.00000000000E+00  0.00000000000E+00  0.14999999963E+04  0.15000000000E+04  0.10566000000E+00 0. -1.
        994   -1    0    0    0    0 -0.00000000000E+00 -0.00000000000E+00  0.11368683772E-12  0.17120000000E+03  0.17120000000E+03 0.  0.
         13    1    1    2    0    0  0.12065894554E+02 -0.13756133452E+01  0.54749426304E+02  0.56080201213E+02  0.10566000000E+00 0. -1.
        994    1    1    2    0    0  0.22072924235E+00  0.94061969608E+01  0.17068741682E+01  0.17146684426E+03  0.17120000000E+03 0.  0.
        998    1    1    2    0    0 -0.12286623797E+02 -0.80305836156E+01  0.14435436958E+04  0.14436529545E+04  0.10000000000E+02 0. -1.
</event>
<event>
 5    1  0.1533416E-008  0.3769742E+03  0.7957747E-01  0.3464440E+00
         13   -1    0    0    0    0  0.00000000000E+00  0.00000000000E+00  0.14999999963E+04  0.15000000000E+04  0.10566000000E+00 0.  1.
        994   -1    0    0    0    0 -0.00000000000E+00 -0.00000000000E+00  0.11368683772E-12  0.17120000000E+03  0.17120000000E+03 0.  0.
         13    1    1    2    0    0  0.66094437557E+02  0.62191818614E+02  0.33261579700E+03  0.34477467505E+03  0.10566000000E+00 0.  1.
        994    1    1    2    0    0 -0.24032248790E+02 -0.72918248244E+01  0.16938601174E+02  0.17385935667E+03  0.17120000000E+03 0.  0.
        998    1    1    2    0    0 -0.42062188767E+02 -0.54899993790E+02  0.11504455981E+04  0.11525659683E+04  0.10000000000E+02 0.  1.
</event>
<event>
 5    1  0.1533416E-008  0.3831327E+03  0.7957747E-01  0.3437631E+00
         13   -1    0    0    0    0  0.00000000000E+00  0.00000000000E+00  0.14999999963E+04  0.15000000000E+04  0.10566000000E+00 0. -1.
        994   -1    0    0    0    0 -0.00000000000E+00 -0.00000000000E+00  0.11368683772E-12  0.17120000000E+03  0.17120000000E+03 0.  0.
         13    1    1    2    0    0 -0.90822927801E+01 -0.19567806651E+02  0.11139575472E+03  0.11346546802E+03  0.10566000000E+00 0. -1.
        994    1    1    2    0    0 -0.29999551715E+02 -0.35361641749E+01  0.55850293013E+01  0.17393421202E+03  0.17120000000E+03 0.  0.
        998    1    1    2    0    0  0.39081844495E+02  0.23103970826E+02  0.13830192123E+04  0.13838003200E+04  0.10000000000E+02 0. -1.
</event>
<event>
 5    1  0.1533416E-008  0.3864640E+03  0.7957747E-01  0.3423487E+00
         13   -1    0    0    0    0  0.00000000000E+00  0.00000000000E+00  0.14999999963E+04  0.15000000000E+04  0.10566000000E+00 0. -1.
        994   -1    0    0    0    0 -0.00000000000E+00 -0.00000000000E+00  0.11368683772E-12  0.17120000000E+03  0.17120000000E+03 0.  0.
         13    1    1    2    0    0 -0.56767553168E+01 -0.64735742317E+02  0.96444323089E+02  0.11629471400E+03  0.10566000000E+00 0. -1.
        994    1    1    2    0    0  0.40024669150E+01  0.54756183401E+02  0.31198990050E+02  0.18247486496E+03  0.17120000000E+03 0.  0.
        998    1    1    2    0    0  0.16742884019E+01  0.99795589155E+01  0.13723566831E+04  0.13724304210E+04  0.10000000000E+02 0. -1.
</event>
<event>
 5    1  0.1533416E-008  0.3847827E+03  0.7957747E-01  0.3430594E+00
         13   -1    0    0    0    0  0.00000000000E+00  0.00000000000E+00  0.14999999963E+04  0.15000000000E+04  0.10566000000E+00 0.  1.
        994   -1    0    0    0    0 -0.00000000000E+00 -0.00000000000E+00  0.11368683772E-12  0.17120000000E+03  0.17120000000E+03 0.  0.
         13    1    1    2    0    0  0.12033215576E+02 -0.94307544238E+01  0.67014005460E+02  0.68735911268E+02  0.10566000000E+00 0.  1.
        994    1    1    2    0    0 -0.23820365467E+01  0.13911889279E+02  0.23939374309E+01  0.17179751365E+03  0.17120000000E+03 0.  0.
        998    1    1    2    0    0 -0.96511790292E+01 -0.44811348550E+01  0.14305920534E+04  0.14306665751E+04  0.10000000000E+02 0.  1.
</event>
<event>
 5    1  0.1533416E-008  0.3685074E+03  0.7957747E-01  0.3502779E+00
         13   -1    0    0    0    0  0.00000000000E+00  0.00000000000E+00  0.14999999963E+04  0.15000000000E+04  0.10566000000E+00 0. -1.
        994   -1    0    0    0    0 -0.00000000000E+00 -0.00000000000E+00  0.11368683772E-12  0.17120000000E+03  0.17120000000E+03 0.  0.
         13    1    1    2    0    0  0.20729536988E+01  0.12184553190E+02  0.29159855932E+01  0.12699394060E+02  0.10566000000E+00 0. -1.
        994    1    1    2    0    0 -0.46706412341E+01 -0.12426811573E+02  0.10664104026E+02  0.17204477223E+03  0.17120000000E+03 0.  0.
        998    1    1    2    0    0  0.25976875354E+01  0.24225838307E+00  0.14864199067E+04  0.14864558337E+04  0.10000000000E+02 0. -1.
</event>
<event>
 5    1  0.1533416E-008  0.3827038E+03  0.7957747E-01  0.3439469E+00
         13   -1    0    0    0    0  0.00000000000E+00  0.00000000000E+00  0.14999999963E+04  0.15000000000E+04  0.10566000000E+00 0.  1.
        994   -1    0    0    0    0 -0.00000000000E+00 -0.00000000000E+00  0.11368683772E-12  0.17120000000E+03  0.17120000000E+03 0.  0.
         13    1    1    2    0    0  0.35081694063E+02  0.30958904933E+02  0.23653750106E+03  0.24112067440E+03  0.10566000000E+00 0.  1.
        994    1    1    2    0    0 -0.57971614745E+02 -0.61382379639E+02  0.26763867403E+02  0.19275437542E+03  0.17120000000E+03 0.  0.
        998    1    1    2    0    0  0.22889920682E+02  0.30423474707E+02  0.12366986278E+04  0.12373249502E+04  0.10000000000E+02 0.  1.
</event>
<event>
 5    1  0.1533416E-008  0.3850473E+03  0.7957747E-01  0.3429472E+00
         13   -1    0    0    0    0  0.00000000000E+00  0.00000000000E+00  0.14999999963E+04  0.15000000000E+04  0.10566000000E+00 0. -1.
        994   -1    0    0    0    0 -0.00000000000E+00 -0.00000000000E+00  0.11368683772E-12  0.17120000000E+03  0.17120000000E+03 0.  0.
         13    1    1    2    0    0 -0.72817221593E+01 -0.10255475638E+02  0.48846785057E+02  0.50440240211E+02  0.10566000000E+00 0. -1.
        994    1    1    2    0    0  0.40045759700E+01  0.90558159052E+01  0.19291099324E+01  0.17149695594E+03  0.17120000000E+03 0.  0.
        998    1    1    2    0    0  0.32771461892E+01  0.11996597324E+01  0.14492241013E+04  0.14492628039E+04  0.10000000000E+02 0. -1.
</event>
<event>
 5    1  0.1533416E-008  0.3827983E+03  0.7957747E-01  0.3439064E+00
         13   -1    0    0    0    0  0.00000000000E+00  0.00000000000E+00  0.14999999963E+04  0.15000000000E+04  0.10566000000E+00 0. -1.
        994   -1    0    0    0    0 -0.00000000000E+00 -0.00000000000E+00  0.11368683772E-12  0.17120000000E+03  0.17120000000E+03 0.  0.
         13    1    1    2    0    0  0.20667694758E+02  0.23686699157E+02  0.18990344895E+03  0.19248777730E+03  0.10566000000E+00 0. -1.
        994    1    1    2    0    0 -0.24018935558E+02  0.32653839722E+01  0.46758551069E+01  0.17297073631E+03  0.17120000000E+03 0.  0.
        998    1    1    2    0    0  0.33512407999E+01 -0.26952083129E+02  0.13054206922E+04  0.13057414864E+04  0.10000000000E+02 0. -1.
</event>
<event>
 5    1  0.1533416E-008  0.3753324E+03  0.7957747E-01  0.3471737E+00
         13   -1    0    0    0    0  0.00000000000E+00  0.00000000000E+00  0.14999999963E+04  0.15000000000E+04  0.10566000000E+00 0.  1.
        994   -1    0    0    0    0 -0.00000000000E+00 -0.00000000000E+00  0.11368683772E-12  0.17120000000E+03  0.17120000000E+03 0.  0.
         13    1    1    2    0    0 -0.17175612653E+02  0.43942760778E+02  0.71678638785E+02  0.85812623296E+02  0.10566000000E+00 0.  1.
        994    1    1    2    0    0  0.19295234872E+02 -0.46815832663E+02  0.22978161105E+02  0.18000406708E+03  0.17120000000E+03 0.  0.
        998    1    1    2    0    0 -0.21196222187E+01  0.28730718848E+01  0.14053431964E+04  0.14053833096E+04  0.10000000000E+02 0.  1.
</event>
<event>
 5    1  0.1533416E-008  0.3786448E+03  0.7957747E-01  0.3457081E+00
         13   -1    0    0    0    0  0.00000000000E+00  0.00000000000E+00  0.14999999963E+04  0.15000000000E+04  0.10566000000E+00 0. -1.
        994   -1    0    0    0    0 -0.00000000000E+00 -0.00000000000E+00  0.11368683772E-12  0.17120000000E+03  0.17120000000E+03 0.  0.
         13    1    1    2    0    0  0.13596421988E+03  0.26621362861E+02  0.76816154658E+03  0.78055566032E+03  0.10566000000E+00 0. -1.
        994    1    1    2    0    0 -0.14701109723E+03 -0.15254682276E+02  0.82066228441E+02  0.24060189918E+03  0.17120000000E+03 0.  0.
        998    1    1    2    0    0  0.11046877348E+02 -0.11366680585E+02  0.64977222126E+03  0.65004244049E+03  0.10000000000E+02 0. -1.
</event>
<event>
 5    1  0.1533416E-008  0.3860429E+03  0.7957747E-01  0.3425261E+00
         13   -1    0    0    0    0  0.00000000000E+00  0.00000000000E+00  0.14999999963E+04  0.15000000000E+04  0.10566000000E+00 0.  1.
        994   -1    0    0    0    0 -0.00000000000E+00 -0.00000000000E+00  0.11368683772E-12  0.17120000000E+03  0.17120000000E+03 0.  0.
         13    1    1    2    0    0 -0.79499747595E+01  0.14580363796E+02  0.99877780094E+02  0.10124905544E+03  0.10566000000E+00 0.  1.
        994    1    1    2    0    0  0.11133393058E+02 -0.34601986824E+02  0.54557277584E+01  0.17510127041E+03  0.17120000000E+03 0.  0.
        998    1    1    2    0    0 -0.31834182980E+01  0.20021623028E+02  0.13946664884E+04  0.13948496742E+04  0.10000000000E+02 0.  1.
</event>
<event>
 5    1  0.1533416E-008  0.3768234E+03  0.7957747E-01  0.3465108E+00
         13   -1    0    0    0    0  0.00000000000E+00  0.00000000000E+00  0.14999999963E+04  0.15000000000E+04  0.10566000000E+00 0.  1.
        994   -1    0    0    0    0 -0.00000000000E+00 -0.00000000000E+00  0.11368683772E-12  0.17120000000E+03  0.17120000000E+03 0.  0.
         13    1    1    2    0    0  0.13859142655E+02  0.56072600386E+01  0.16608158782E+02  0.22346348750E+02  0.10566000000E+00 0.  1.
        994    1    1    2    0    0 -0.20267186783E+02 -0.14120577994E+01  0.71410087950E+01  0.17254908511E+03  0.17120000000E+03 0.  0.
        998    1    1    2    0    0  0.64080441278E+01 -0.41952022392E+01  0.14762508287E+04  0.14763045661E+04  0.10000000000E+02 0.  1.
</event>
<event>
 5    1  0.1533416E-008  0.3824199E+03  0.7957747E-01  0.3440689E+00
         13   -1    0    0    0    0  0.00000000000E+00  0.00000000000E+00  0.14999999963E+04  0.15000000000E+04  0.10566000000E+00 0.  1.
        994   -1    0    0    0    0 -0.00000000000E+00 -0.00000000000E+00  0.11368683772E-12  0.17120000000E+03  0.17120000000E+03 0.  0.
         13    1    1    2    0    0  0.38293961308E+01 -0.16155517559E+02  0.45349272957E+02  0.48293195630E+02  0.10566000000E+00 0.  1.
        994    1    1    2    0    0 -0.38147523510E+00  0.16335561312E+02  0.38025326053E+01  0.17202004343E+03  0.17120000000E+03 0.  0.
        998    1    1    2    0    0 -0.34479208957E+01 -0.18004375273E+00  0.14508481907E+04  0.14508867609E+04  0.10000000000E+02 0.  1.
</event>
<event>
 5    1  0.1533416E-008  0.3794338E+03  0.7957747E-01  0.3453628E+00
         13   -1    0    0    0    0  0.00000000000E+00  0.00000000000E+00  0.14999999963E+04  0.15000000000E+04  0.10566000000E+00 0.  1.
        994   -1    0    0    0    0 -0.00000000000E+00 -0.00000000000E+00  0.11368683772E-12  0.17120000000E+03  0.17120000000E+03 0.  0.
         13    1    1    2    0    0 -0.21759195876E+02 -0.75584094565E+01  0.94784287910E+01  0.24908712031E+02  0.10566000000E+00 0.  1.
        994    1    1    2    0    0  0.19207227174E+02  0.14296239947E+02  0.18092311624E+02  0.17381044788E+03  0.17120000000E+03 0.  0.
        998    1    1    2    0    0  0.25519687020E+01 -0.67378304904E+01  0.14724292559E+04  0.14724808401E+04  0.10000000000E+02 0.  1.
</event>
<event>
 5    1  0.1533416E-008  0.3788109E+03  0.7957747E-01  0.3456352E+00
         13   -1    0    0    0    0  0.00000000000E+00  0.00000000000E+00  0.14999999963E+04  0.15000000000E+04  0.10566000000E+00 0.  1.
        994   -1    0    0    0    0 -0.00000000000E+00 -0.00000000000E+00  0.11368683772E-12  0.17120000000E+03  0.17120000000E+03 0.  0.
         13    1    1    2    0    0  0.56974911710E+01  0.13727189241E+02  0.21448001599E+02  0.26094540937E+02  0.10566000000E+00 0.  1.
        994    1    1    2    0    0 -0.10173974267E+00 -0.91791466547E+01  0.50174440956E+01  0.17151933369E+03  0.17120000000E+03 0.  0.
        998    1    1    2    0    0 -0.55957514284E+01 -0.45480425862E+01  0.14735345506E+04  0.14735861254E+04  0.10000000000E+02 0.  1.
</event>
<event>
 5    1  0.1533416E-008  0.3773234E+03  0.7957747E-01  0.3462896E+00
         13   -1    0    0    0    0  0.00000000000E+00  0.00000000000E+00  0.14999999963E+04  0.15000000000E+04  0.10566000000E+00 0.  1.
        994   -1    0    0    0    0 -0.00000000000E+00 -0.00000000000E+00  0.11368683772E-12  0.17120000000E+03  0.17120000000E+03 0.  0.
         13    1    1    2    0    0  0.94024618269E+02  0.20938982283E+03  0.89944756845E+03  0.92827294817E+03  0.10566000000E+00 0.  1.
        994    1    1    2    0    0 -0.83846720266E+02 -0.22845031870E+03  0.24184310203E+03  0.38342841133E+03  0.17120000000E+03 0.  0.
        998    1    1    2    0    0 -0.10177898003E+02  0.19060495869E+02  0.35870932580E+03  0.35949864051E+03  0.10000000000E+02 0. -1.
</event>
<event>
 5    1  0.1533416E-008  0.3820316E+03  0.7957747E-01  0.3442360E+00
         13   -1    0    0    0    0  0.00000000000E+00  0.00000000000E+00  0.14999999963E+04  0.15000000000E+04  0.10566000000E+00 0. -1.
        994   -1    0    0    0    0 -0.00000000000E+00 -0.00000000000E+00  0.11368683772E-12  0.17120000000E+03  0.17120000000E+03 0.  0.
         13    1    1    2    0    0 -0.30333910583E+02  0.39138533536E+01  0.17279060496E+03  0.17547668992E+03  0.10566000000E+00 0. -1.
        994    1    1    2    0    0 -0.79099527366E+00 -0.44208782399E+01  0.31781004682E+01  0.17128838303E+03  0.17120000000E+03 0.  0.
        998    1    1    2    0    0  0.31124905856E+02  0.50702488627E+00  0.13240312909E+04  0.13244349271E+04  0.10000000000E+02 0. -1.
</event>
<event>
 5    1  0.1533416E-008  0.3854132E+03  0.7957747E-01  0.3427922E+00
         13   -1    0    0    0    0  0.00000000000E+00  0.00000000000E+00  0.14999999963E+04  0.15000000000E+04  0.10566000000E+00 0.  1.
        994   -1    0    0    0    0 -0.00000000000E+00 -0.00000000000E+00  0.11368683772E-12  0.17120000000E+03  0.17120000000E+03 0.  0.
         13    1    1    2    0    0  0.10692314017E+02  0.56451250095E+01  0.52981893360E+02  0.54344136790E+02  0.10566000000E+00 0.  1.
        994    1    1    2    0    0 -0.14808008481E+01 -0.44658617078E+01  0.14978480716E+01  0.17127118917E+03  0.17120000000E+03 0.  0.
        998    1    1    2    0    0 -0.92115131690E+01 -0.11792633017E+01  0.14455202548E+04  0.14455846740E+04  0.10000000000E+02 0.  1.
</event>
<event>
 5    1  0.1533416E-008  0.3761577E+03  0.7957747E-01  0.3468061E+00
         13   -1    0    0    0    0  0.00000000000E+00  0.00000000000E+00  0.14999999963E+04  0.15000000000E+04  0.10566000000E+00 0. -1.
        994   -1    0    0    0    0 -0.00000000000E+00 -0.00000000000E+00  0.11368683772E-12  0.17120000000E+03  0.17120000000E+03 0.  0.
         13    1    1    2    0    0  0.13493564157E+02 -0.23956697000E+02  0.63324712731E+02  0.69036439735E+02  0.10566000000E+00 0. -1.
        994    1    1    2    0    0  0.61282286731E+01  0.54686944803E+01  0.63138878417E+01  0.17151316855E+03  0.17120000000E+03 0.  0.
        998    1    1    2    0    0 -0.19621792830E+02  0.18488002520E+02  0.14303613957E+04  0.14306503917E+04  0.10000000000E+02 0. -1.
</event>
<event>
 5    1  0.1533416E-008  0.3770412E+03  0.7957747E-01  0.3464144E+00
         13   -1    0    0    0    0  0.00000000000E+00  0.00000000000E+00  0.14999999963E+04  0.15000000000E+04  0.10566000000E+00 0. -1.
        994   -1    0    0    0    0 -0.00000000000E+00 -0.00000000000E+00  0.11368683772E-12  0.17120000000E+03  0.17120000000E+03 0.  0.
         13    1    1    2    0    0  0.77716961790E+01  0.66513382338E+01  0.65990957673E+01  0.12173692570E+02  0.10566000000E+00 0. -1.
        994    1    1    2    0    0 -0.12359708483E+02 -0.78573774625E+01  0.63587216793E+01  0.17194293855E+03  0.17120000000E+03 0.  0.
        998    1    1    2    0    0  0.45880123043E+01  0.12060392288E+01  0.14870421788E+04  0.14870833689E+04  0.10000000000E+02 0. -1.
</event>
<event>
 5    1  0.1533416E-008  0.3819077E+03  0.7957747E-01  0.3442894E+00
         13   -1    0    0    0    0  0.00000000000E+00  0.00000000000E+00  0.14999999963E+04  0.15000000000E+04  0.10566000000E+00 0.  1.
        994   -1    0    0    0    0 -0.00000000000E+00 -0.00000000000E+00  0.11368683772E-12  0.17120000000E+03  0.17120000000E+03 0.  0.
         13    1    1    2    0    0  0.22175198115E+02  0.21063955823E+02  0.14051385051E+03  0.14380397420E+03  0.10566000000E+00 0.  1.
        994    1    1    2    0    0 -0.17879874260E+02 -0.16227565140E+02  0.51124243010E+01  0.17296994148E+03  0.17120000000E+03 0.  0.
        998    1    1    2    0    0 -0.42953238546E+01 -0.48363906827E+01  0.13543737215E+04  0.13544260843E+04  0.10000000000E+02 0.  1.
</event>
<event>
 5    1  0.1533416E-008  0.3850204E+03  0.7957747E-01  0.3429586E+00
         13   -1    0    0    0    0  0.00000000000E+00  0.00000000000E+00  0.14999999963E+04  0.15000000000E+04  0.10566000000E+00 0. -1.
        994   -1    0    0    0    0 -0.00000000000E+00 -0.00000000000E+00  0.11368683772E-12  0.17120000000E+03  0.17120000000E+03 0.  0.
         13    1    1    2    0    0 -0.99335329830E+01 -0.12840359005E+02  0.88346674670E+02  0.89825920458E+02  0.10566000000E+00 0. -1.
        994    1    1    2    0    0  0.22531168325E+01 -0.21839655849E+01  0.16523874569E+01  0.17123672686E+03  0.17120000000E+03 0.  0.
        998    1    1    2    0    0  0.76804161505E+01  0.15024324590E+02  0.14100009342E+04  0.14101373527E+04  0.10000000000E+02 0. -1.
</event>
<event>
 5    1  0.1588791E-008  0.3860746E+03  0.7957747E-01  0.3425127E+00
         13   -1    0    0    0    0  0.00000000000E+00  0.00000000000E+00  0.14999999963E+04  0.15000000000E+04  0.10566000000E+00 0.  1.
        994   -1    0    0    0    0 -0.00000000000E+00 -0.00000000000E+00  0.11368683772E-12  0.17120000000E+03  0.17120000000E+03 0.  0.
         13    1    1    2    0    0  0.25266075603E+01 -0.10189038046E+02  0.54178600041E+02  0.55186339873E+02  0.10566000000E+00 0.  1.
        994    1    1    2    0    0 -0.18132662123E+01 -0.23559920207E+01  0.11265037708E+01  0.17122951744E+03  0.17120000000E+03 0.  0.
        998    1    1    2    0    0 -0.71334134797E+00  0.12545030067E+02  0.14446948925E+04  0.14447841427E+04  0.10000000000E+02 0.  1.
</event>
<event>
 5    1  0.1533416E-008  0.3814569E+03  0.7957747E-01  0.3444839E+00
         13   -1    0    0    0    0  0.00000000000E+00  0.00000000000E+00  0.14999999963E+04  0.15000000000E+04  0.10566000000E+00 0.  1.
        994   -1    0    0    0    0 -0.00000000000E+00 -0.00000000000E+00  0.11368683772E-12  0.17120000000E+03  0.17120000000E+03 0.  0.
         13    1    1    2    0    0  0.14216081399E+02 -0.27344891255E+02  0.13030363675E+03  0.13389880120E+03  0.10566000000E+00 0.  1.
        994    1    1    2    0    0 -0.18585942105E+02  0.22018082140E+02  0.61665335520E+01  0.17371729713E+03  0.17120000000E+03 0.  0.
        998    1    1    2    0    0  0.43698607057E+01  0.53268091154E+01  0.13635298260E+04  0.13635839017E+04  0.10000000000E+02 0.  1.
</event>
<event>
 5    1  0.1533416E-008  0.3696881E+03  0.7957747E-01  0.3497326E+00
         13   -1    0    0    0    0  0.00000000000E+00  0.00000000000E+00  0.14999999963E+04  0.15000000000E+04  0.10566000000E+00 0. -1.
        994   -1    0    0    0    0 -0.00000000000E+00 -0.00000000000E+00  0.11368683772E-12  0.17120000000E+03  0.17120000000E+03 0.  0.
         13    1    1    2    0    0 -0.29353234692E+02 -0.22912257966E+02  0.58356025992E+02  0.69224424054E+02  0.10566000000E+00 0. -1.
        994    1    1    2    0    0  0.31354808114E+02  0.18546950686E+02  0.15422700141E+02  0.17571116371E+03  0.17120000000E+03 0.  0.
        998    1    1    2    0    0 -0.20015734227E+01  0.43653072803E+01  0.14262212701E+04  0.14262644122E+04  0.10000000000E+02 0. -1.
</event>
<event>
 5    1  0.1533416E-008  0.3834369E+03  0.7957747E-01  0.3436329E+00
         13   -1    0    0    0    0  0.00000000000E+00  0.00000000000E+00  0.14999999963E+04  0.15000000000E+04  0.10566000000E+00 0. -1.
        994   -1    0    0    0    0 -0.00000000000E+00 -0.00000000000E+00  0.11368683772E-12  0.17120000000E+03  0.17120000000E+03 0.  0.
         13    1    1    2    0    0  0.98354253683E+01 -0.53288614938E+01  0.24661126520E+02  0.27079783645E+02  0.10566000000E+00 0. -1.
        994    1    1    2    0    0 -0.14535886722E+02  0.19167250072E+01  0.31190534214E+01  0.17185498053E+03  0.17120000000E+03 0.  0.
        998    1    1    2    0    0  0.47004613537E+01  0.34121364866E+01  0.14722198163E+04  0.14722652358E+04  0.10000000000E+02 0. -1.
</event>
<event>
 5    1  0.1533416E-008  0.3723115E+03  0.7957747E-01  0.3485334E+00
         13   -1    0    0    0    0  0.00000000000E+00  0.00000000000E+00  0.14999999963E+04  0.15000000000E+04  0.10566000000E+00 0. -1.
        994   -1    0    0    0    0 -0.00000000000E+00 -0.00000000000E+00  0.11368683772E-12  0.17120000000E+03  0.17120000000E+03 0.  0.
         13    1    1    2    0    0 -0.59699937518E+02  0.21612712910E+02  0.15052169566E+03  0.16336457366E+03  0.10566000000E+00 0. -1.
        994    1    1    2    0    0  0.57816532406E+02 -0.65814625434E+01  0.24198141788E+02  0.18243096539E+03  0.17120000000E+03 0.  0.
        998    1    1    2    0    0  0.18834051113E+01 -0.15031250367E+02  0.13252801588E+04  0.13254044609E+04  0.10000000000E+02 0. -1.
</event>
<event>
 5    1  0.1533416E-008  0.3704725E+03  0.7957747E-01  0.3493722E+00
         13   -1    0    0    0    0  0.00000000000E+00  0.00000000000E+00  0.14999999963E+04  0.15000000000E+04  0.10566000000E+00 0.  1.
        994   -1    0    0    0    0 -0.00000000000E+00 -0.00000000000E+00  0.11368683772E-12  0.17120000000E+03  0.17120000000E+03 0.  0.
         13    1    1    2    0    0  0.40200229921E+02 -0.52929789547E+02  0.27553866598E+03  0.28344168487E+03  0.10566000000E+00 0.  1.
        994    1    1    2    0    0  0.22972032192E+02 -0.61149777697E+01  0.13170247055E+02  0.17334359701E+03  0.17120000000E+03 0.  0.
        998    1    1    2    0    0 -0.63172262113E+02  0.59044767316E+02  0.12112910832E+04  0.12144147181E+04  0.10000000000E+02 0.  1.
</event>
<event>
 5    1  0.1533416E-008  0.3863048E+03  0.7957747E-01  0.3424157E+00
         13   -1    0    0    0    0  0.00000000000E+00  0.00000000000E+00  0.14999999963E+04  0.15000000000E+04  0.10566000000E+00 0. -1.
        994   -1    0    0    0    0 -0.00000000000E+00 -0.00000000000E+00  0.11368683772E-12  0.17120000000E+03  0.17120000000E+03 0.  0.
         13    1    1    2    0    0 -0.95567239737E+01 -0.50703426009E+01  0.60428951433E+02  0.61389809273E+02  0.10566000000E+00 0. -1.
        994    1    1    2    0    0  0.25562044914E+01  0.11366673223E+02  0.14283513870E+01  0.17160191033E+03  0.17120000000E+03 0.  0.
        998    1    1    2    0    0  0.70005194823E+01 -0.62963306218E+01  0.14381426935E+04  0.14382082804E+04  0.10000000000E+02 0. -1.
</event>
<event>
 5    1  0.1533416E-008  0.3775892E+03  0.7957747E-01  0.3461723E+00
         13   -1    0    0    0    0  0.00000000000E+00  0.00000000000E+00  0.14999999963E+04  0.15000000000E+04  0.10566000000E+00 0. -1.
        994   -1    0    0    0    0 -0.00000000000E+00 -0.00000000000E+00  0.11368683772E-12  0.17120000000E+03  0.17120000000E+03 0.  0.
         13    1    1    2    0    0  0.32048476175E+02 -0.16849193590E+02  0.14933567073E+03  0.15366246733E+03  0.10566000000E+00 0. -1.
        994    1    1    2    0    0  0.17183952000E+02 -0.21165859034E+00  0.63508976196E+01  0.17217754472E+03  0.17120000000E+03 0.  0.
        998    1    1    2    0    0 -0.49232428175E+02  0.17060852180E+02  0.13443134279E+04  0.13453599879E+04  0.10000000000E+02 0. -1.
</event>
<event>
 5    1  0.1533416E-008  0.3801626E+03  0.7957747E-01  0.3450451E+00
         13   -1    0    0    0    0  0.00000000000E+00  0.00000000000E+00  0.14999999963E+04  0.15000000000E+04  0.10566000000E+00 0.  1.
        994   -1    0    0    0    0 -0.00000000000E+00 -0.00000000000E+00  0.11368683772E-12  0.17120000000E+03  0.17120000000E+03 0.  0.
         13    1    1    2    0    0  0.23738056491E+01 -0.21253417382E+02  0.59297556146E+02  0.63036132754E+02  0.10566000000E+00 0.  1.
        994    1    1    2    0    0 -0.23757870267E+01 -0.50282455495E+01  0.41544390680E+01  0.17134067521E+03  0.17120000000E+03 0.  0.
        998    1    1    2    0    0  0.19813775738E-02  0.26281662932E+02  0.14365480011E+04  0.14368231920E+04  0.10000000000E+02 0.  1.
</event>
<event>
 5    1  0.1533416E-008  0.3820804E+03  0.7957747E-01  0.3442150E+00
         13   -1    0    0    0    0  0.00000000000E+00  0.00000000000E+00  0.14999999963E+04  0.15000000000E+04  0.10566000000E+00 0. -1.
        994   -1    0    0    0    0 -0.00000000000E+00 -0.00000000000E+00  0.11368683772E-12  0.17120000000E+03  0.17120000000E+03 0.  0.
         13    1    1    2    0    0 -0.11959504970E+01  0.11086809759E+02  0.18902780532E+02  0.21947070969E+02  0.10566000000E+00 0. -1.
        994    1    1    2    0    0 -0.16044895641E+01 -0.83324834745E+01  0.33257671042E+01  0.17144242589E+03  0.17120000000E+03 0.  0.
        998    1    1    2    0    0  0.28004400611E+01 -0.27543262843E+01  0.14777714486E+04  0.14778105031E+04  0.10000000000E+02 0. -1.
</event>
<event>
 5    1  0.2436516E-008  0.3863331E+03  0.7957747E-01  0.3424038E+00
         13   -1    0    0    0    0  0.00000000000E+00  0.00000000000E+00  0.14999999963E+04  0.15000000000E+04  0.10566000000E+00 0. -1.
        994   -1    0    0    0    0 -0.00000000000E+00 -0.00000000000E+00  0.11368683772E-12  0.17120000000E+03  0.17120000000E+03 0.  0.
         13    1    1    2    0    0  0.26639532733E+01  0.10587236469E+02  0.64167706192E+02  0.65089875596E+02  0.10566000000E+00 0. -1.
        994    1    1    2    0    0  0.10803737573E+01 -0.45891175791E+01  0.10425128324E+01  0.17126807654E+03  0.17120000000E+03 0.  0.
        998    1    1    2    0    0 -0.37443270306E+01 -0.59981188899E+01  0.14347897773E+04  0.14348420479E+04  0.10000000000E+02 0. -1.
</event>
<event>
 5    1  0.1591075E-008  0.3850124E+03  0.7957747E-01  0.3429620E+00
         13   -1    0    0    0    0  0.00000000000E+00  0.00000000000E+00  0.14999999963E+04  0.15000000000E+04  0.10566000000E+00 0.  1.
        994   -1    0    0    0    0 -0.00000000000E+00 -0.00000000000E+00  0.11368683772E-12  0.17120000000E+03  0.17120000000E+03 0.  0.
         13    1    1    2    0    0  0.43546826001E+01 -0.15405264916E+02  0.86839540295E+02  0.88302901257E+02  0.10566000000E+00 0.  1.
        994    1    1    2    0    0  0.76745148151E+00 -0.22241413219E+01  0.16422001651E+01  0.17122404214E+03  0.17120000000E+03 0.  0.
        998    1    1    2    0    0 -0.51221340816E+01  0.17629406238E+02  0.14115182558E+04  0.14116730566E+04  0.10000000000E+02 0.  1.
</event>
<event>
 5    1  0.1533416E-008  0.3826723E+03  0.7957747E-01  0.3439605E+00
         13   -1    0    0    0    0  0.00000000000E+00  0.00000000000E+00  0.14999999963E+04  0.15000000000E+04  0.10566000000E+00 0.  1.
        994   -1    0    0    0    0 -0.00000000000E+00 -0.00000000000E+00  0.11368683772E-12  0.17120000000E+03  0.17120000000E+03 0.  0.
         13    1    1    2    0    0 -0.13884903627E+02 -0.22351966941E+01  0.34527140671E+02  0.37281647763E+02  0.10566000000E+00 0.  1.
        994    1    1    2    0    0  0.93967436937E+01 -0.13494317533E+00  0.30829572607E+01  0.17148545602E+03  0.17120000000E+03 0.  0.
        998    1    1    2    0    0  0.44881599336E+01  0.23701398694E+01  0.14623898983E+04  0.14624328962E+04  0.10000000000E+02 0.  1.
</event>
<event>
 5    1  0.1533416E-008  0.3841098E+03  0.7957747E-01  0.3433457E+00
         13   -1    0    0    0    0  0.00000000000E+00  0.00000000000E+00  0.14999999963E+04  0.15000000000E+04  0.10566000000E+00 0.  1.
        994   -1    0    0    0    0 -0.00000000000E+00 -0.00000000000E+00  0.11368683772E-12  0.17120000000E+03  0.17120000000E+03 0.  0.
         13    1    1    2    0    0 -0.34120154118E+01 -0.94582606188E+01  0.23548276799E+02  0.25605332400E+02  0.10566000000E+00 0.  1.
        994    1    1    2    0    0  0.39124813055E+01  0.87422078607E+01  0.23753871077E+01  0.17148415720E+03  0.17120000000E+03 0.  0.
        998    1    1    2    0    0 -0.50046589366E+00  0.71605275806E+00  0.14740763324E+04  0.14741105104E+04  0.10000000000E+02 0.  1.
</event>
<event>
 5    1  0.1533416E-008  0.3849692E+03  0.7957747E-01  0.3429803E+00
         13   -1    0    0    0    0  0.00000000000E+00  0.00000000000E+00  0.14999999963E+04  0.15000000000E+04  0.10566000000E+00 0.  1.
        994   -1    0    0    0    0 -0.00000000000E+00 -0.00000000000E+00  0.11368683772E-12  0.17120000000E+03  0.17120000000E+03 0.  0.
         13    1    1    2    0    0 -0.39837973280E+01 -0.16210333069E+02  0.75397388852E+02  0.77223202142E+02  0.10566000000E+00 0.  1.
        994    1    1    2    0    0  0.97006618529E+01  0.26829229045E+02  0.43269390348E+01  0.17361472510E+03  0.17120000000E+03 0.  0.
        998    1    1    2    0    0 -0.57168645248E+01 -0.10618895976E+02  0.14202756684E+04  0.14203620728E+04  0.10000000000E+02 0.  1.
</event>
<event>
 5    1  0.1533416E-008  0.3831970E+03  0.7957747E-01  0.3437355E+00
         13   -1    0    0    0    0  0.00000000000E+00  0.00000000000E+00  0.14999999963E+04  0.15000000000E+04  0.10566000000E+00 0. -1.
        994   -1    0    0    0    0 -0.00000000000E+00 -0.00000000000E+00  0.11368683772E-12  0.17120000000E+03  0.17120000000E+03 0.  0.
         13    1    1    2    0    0  0.28711269875E+01 -0.12026325090E+02  0.28772372438E+02  0.31316711914E+02  0.10566000000E+00 0. -1.
        994    1    1    2    0    0 -0.13813833917E+01  0.14502434380E+02  0.32303120208E+01  0.17184907256E+03  0.17120000000E+03 0.  0.
        998    1    1    2    0    0 -0.14897435958E+01 -0.24761092899E+01  0.14679973118E+04  0.14680342155E+04  0.10000000000E+02 0. -1.
</event>
<event>
 5    1  0.1533416E-008  0.3818903E+03  0.7957747E-01  0.3442969E+00
         13   -1    0    0    0    0  0.00000000000E+00  0.00000000000E+00  0.14999999963E+04  0.15000000000E+04  0.10566000000E+00 0.  1.
        994   -1    0    0    0    0 -0.00000000000E+00 -0.00000000000E+00  0.11368683772E-12  0.17120000000E+03  0.17120000000E+03 0.  0.
         13    1    1    2    0    0 -0.26635623112E+02  0.90999545491E+01  0.11507431292E+03  0.11846676433E+03  0.10566000000E+00 0.  1.
        994    1    1    2    0    0  0.25837685305E+02 -0.12475580859E+02  0.59216749256E+01  0.17368860738E+03  0.17120000000E+03 0.  0.
        998    1    1    2    0    0  0.79793780630E+00  0.33756263095E+01  0.13790040084E+04  0.13790446283E+04  0.10000000000E+02 0.  1.
</event>
<event>
 5    1  0.1533416E-008  0.3814989E+03  0.7957747E-01  0.3444658E+00
         13   -1    0    0    0    0  0.00000000000E+00  0.00000000000E+00  0.14999999963E+04  0.15000000000E+04  0.10566000000E+00 0.  1.
        994   -1    0    0    0    0 -0.00000000000E+00 -0.00000000000E+00  0.11368683772E-12  0.17120000000E+03  0.17120000000E+03 0.  0.
         13    1    1    2    0    0  0.22208736867E+02  0.58198870281E+01  0.73279478602E+02  0.76791876045E+02  0.10566000000E+00 0.  1.
        994    1    1    2    0    0 -0.28589846033E+02  0.11916395900E+02  0.65762944952E+01  0.17410361121E+03  0.17120000000E+03 0.  0.
        998    1    1    2    0    0  0.63811091656E+01 -0.17736282928E+02  0.14201442232E+04  0.14203045127E+04  0.10000000000E+02 0.  1.
</event>
<event>
 5    1  0.1533416E-008  0.3836988E+03  0.7957747E-01  0.3435209E+00
         13   -1    0    0    0    0  0.00000000000E+00  0.00000000000E+00  0.14999999963E+04  0.15000000000E+04  0.10566000000E+00 0. -1.
        994   -1    0    0    0    0 -0.00000000000E+00 -0.00000000000E+00  0.11368683772E-12  0.17120000000E+03  0.17120000000E+03 0.  0.
         13    1    1    2    0    0 -0.10922237235E+02 -0.68226049079E+01  0.38076557934E+02  0.40195505123E+02  0.10566000000E+00 0. -1.
        994    1    1    2    0    0 -0.59662732533E+01 -0.16167039603E+01  0.24037244492E+01  0.17132842158E+03  0.17120000000E+03 0.  0.
        998    1    1    2    0    0  0.16888510488E+02  0.84393088682E+01  0.14595197139E+04  0.14596760733E+04  0.10000000000E+02 0. -1.
</event>
<event>
 5    1  0.1533416E-008  0.3791783E+03  0.7957747E-01  0.3454744E+00
         13   -1    0    0    0    0  0.00000000000E+00  0.00000000000E+00  0.14999999963E+04  0.15000000000E+04  0.10566000000E+00 0.  1.
        994   -1    0    0    0    0 -0.00000000000E+00 -0.00000000000E+00  0.11368683772E-12  0.17120000000E+03  0.17120000000E+03 0.  0.
         13    1    1    2    0    0 -0.17140771831E+02  0.57364437643E+02  0.33832030629E+03  0.34357695729E+03  0.10566000000E+00 0.  1.
        994    1    1    2    0    0  0.27667030224E+02 -0.44117464929E+02  0.13692840573E+02  0.17946796136E+03  0.17120000000E+03 0.  0.
        998    1    1    2    0    0 -0.10526258392E+02 -0.13246972714E+02  0.11479868494E+04  0.11481550813E+04  0.10000000000E+02 0.  1.
</event>
<event>
 5    1  0.1533416E-008  0.3729624E+03  0.7957747E-01  0.3482386E+00
         13   -1    0    0    0    0  0.00000000000E+00  0.00000000000E+00  0.14999999963E+04  0.15000000000E+04  0.10566000000E+00 0. -1.
        994   -1    0    0    0    0 -0.00000000000E+00 -0.00000000000E+00  0.11368683772E-12  0.17120000000E+03  0.17120000000E+03 0.  0.
         13    1    1    2    0    0 -0.92071558025E+01  0.14176286124E+02  0.14124396253E+02  0.22028357628E+02  0.10566000000E+00 0. -1.
        994    1    1    2    0    0  0.13053000252E+02 -0.39226204588E+02  0.13601171867E+02  0.17664514660E+03  0.17120000000E+03 0.  0.
        998    1    1    2    0    0 -0.38458444494E+01  0.25049918464E+02  0.14722744282E+04  0.14725264958E+04  0.10000000000E+02 0. -1.
</event>
<event>
 5    1  0.1533416E-008  0.3745227E+03  0.7957747E-01  0.3475360E+00
         13   -1    0    0    0    0  0.00000000000E+00  0.00000000000E+00  0.14999999963E+04  0.15000000000E+04  0.10566000000E+00 0.  1.
        994   -1    0    0    0    0 -0.00000000000E+00 -0.00000000000E+00  0.11368683772E-12  0.17120000000E+03  0.17120000000E+03 0.  0.
         13    1    1    2    0    0  0.48137228554E+02  0.70706740309E+01  0.17348989676E+03  0.18018308091E+03  0.10566000000E+00 0.  1.
        994    1    1    2    0    0 -0.28910026327E+02  0.29586502270E+02  0.12772315829E+02  0.17658913554E+03  0.17120000000E+03 0.  0.
        998    1    1    2    0    0 -0.19227202227E+02 -0.36657176301E+02  0.13137377837E+04  0.13144277836E+04  0.10000000000E+02 0.  1.
</event>
<event>
 5    1  0.1533416E-008  0.3853664E+03  0.7957747E-01  0.3428120E+00
         13   -1    0    0    0    0  0.00000000000E+00  0.00000000000E+00  0.14999999963E+04  0.15000000000E+04  0.10566000000E+00 0. -1.
        994   -1    0    0    0    0 -0.00000000000E+00 -0.00000000000E+00  0.11368683772E-12  0.17120000000E+03  0.17120000000E+03 0.  0.
         13    1    1    2    0    0 -0.13001056039E+02  0.32700117857E+00  0.64624914113E+02  0.65920596752E+02  0.10566000000E+00 0. -1.
        994    1    1    2    0    0 -0.53485962753E+01  0.10621667166E+02  0.19130173217E+01  0.17162321210E+03  0.17120000000E+03 0.  0.
        998    1    1    2    0    0  0.18349652314E+02 -0.10948668345E+02  0.14334620648E+04  0.14336561912E+04  0.10000000000E+02 0. -1.
</event>
<event>
 5    1  0.1533416E-008  0.3773847E+03  0.7957747E-01  0.3462626E+00
         13   -1    0    0    0    0  0.00000000000E+00  0.00000000000E+00  0.14999999963E+04  0.15000000000E+04  0.10566000000E+00 0.  1.
        994   -1    0    0    0    0 -0.00000000000E+00 -0.00000000000E+00  0.11368683772E-12  0.17120000000E+03  0.17120000000E+03 0.  0.
         13    1    1    2    0    0  0.11487750183E+02 -0.10685473050E+02  0.19834642698E+02  0.25289759856E+02  0.10566000000E+00 0.  1.
        994    1    1    2    0    0 -0.16956483651E+02  0.90798487621E+01  0.67077251459E+01  0.17240765519E+03  0.17120000000E+03 0.  0.
        998    1    1    2    0    0  0.54687334677E+01  0.16056242881E+01  0.14734576284E+04  0.14735025850E+04  0.10000000000E+02 0.  1.
</event>
<event>
 5    1  0.1533416E-008  0.3793785E+03  0.7957747E-01  0.3453869E+00
         13   -1    0    0    0    0  0.00000000000E+00  0.00000000000E+00  0.14999999963E+04  0.15000000000E+04  0.10566000000E+00 0. -1.
        994   -1    0    0    0    0 -0.00000000000E+00 -0.00000000000E+00  0.11368683772E-12  0.17120000000E+03  0.17120000000E+03 0.  0.
         13    1    1    2    0    0  0.34998205093E+02 -0.11240538393E+01  0.14781866961E+03  0.15190953922E+03  0.10566000000E+00 0. -1.
        994    1    1    2    0    0 -0.75149777261E+01  0.29407939645E+02  0.75395354529E+01  0.17403329107E+03  0.17120000000E+03 0.  0.
        998    1    1    2    0    0 -0.27483227367E+02 -0.28283885806E+02  0.13446417912E+04  0.13452571697E+04  0.10000000000E+02 0. -1.
</event>
<event>
 5    1  0.1533416E-008  0.3863339E+03  0.7957747E-01  0.3424035E+00
         13   -1    0    0    0    0  0.00000000000E+00  0.00000000000E+00  0.14999999963E+04  0.15000000000E+04  0.10566000000E+00 0. -1.
        994   -1    0    0    0    0 -0.00000000000E+00 -0.00000000000E+00  0.11368683772E-12  0.17120000000E+03  0.17120000000E+03 0.  0.
         13    1    1    2    0    0  0.60042403991E+02 -0.32360991019E+02  0.10491057362E+03  0.12513418253E+03  0.10566000000E+00 0. -1.
        994    1    1    2    0    0 -0.56446835019E+02  0.29735294034E+02  0.35112755621E+02  0.18604509803E+03  0.17120000000E+03 0.  0.
        998    1    1    2    0    0 -0.35955689723E+01  0.26256969851E+01  0.13599766670E+04  0.13600207194E+04  0.10000000000E+02 0. -1.
</event>
<event>
 5    1  0.1533416E-008  0.3600782E+03  0.7957747E-01  0.3542771E+00
         13   -1    0    0    0    0  0.00000000000E+00  0.00000000000E+00  0.14999999963E+04  0.15000000000E+04  0.10566000000E+00 0. -1.
        994   -1    0    0    0    0 -0.00000000000E+00 -0.00000000000E+00  0.11368683772E-12  0.17120000000E+03  0.17120000000E+03 0.  0.
         13    1    1    2    0    0  0.15901062573E+03  0.14333131555E+03  0.11695698461E+04  0.11890003705E+04  0.10566000000E+00 0. -1.
        994    1    1    2    0    0 -0.11046360635E+03 -0.15032844248E+03  0.14855693900E+03  0.29356337147E+03  0.17120000000E+03 0.  0.
        998    1    1    2    0    0 -0.48547019376E+02  0.69971269302E+01  0.18187321119E+03  0.18863625798E+03  0.10000000000E+02 0.  1.
</event>
<event>
 5    1  0.1533416E-008  0.4038780E+03  0.7957747E-01  0.3353353E+00
         13   -1    0    0    0    0  0.00000000000E+00  0.00000000000E+00  0.14999999963E+04  0.15000000000E+04  0.10566000000E+00 0. -1.
        994   -1    0    0    0    0 -0.00000000000E+00 -0.00000000000E+00  0.11368683772E-12  0.17120000000E+03  0.17120000000E+03 0.  0.
         13    1    1    2    0    0 -0.19574531847E+02 -0.47522690254E+01 -0.64491328183E+01  0.21150622593E+02  0.10566000000E+00 0. -1.
        994    1    1    2    0    0  0.18736444740E+02  0.21244967025E+01  0.31534599451E+02  0.17509836895E+03  0.17120000000E+03 0.  0.
        998    1    1    2    0    0  0.83808710709E+00  0.26277723229E+01  0.14749145296E+04  0.14749510085E+04  0.10000000000E+02 0. -1.
</event>
<event>
 5    1  0.1533416E-008  0.3828005E+03  0.7957747E-01  0.3439055E+00
         13   -1    0    0    0    0  0.00000000000E+00  0.00000000000E+00  0.14999999963E+04  0.15000000000E+04  0.10566000000E+00 0. -1.
        994   -1    0    0    0    0 -0.00000000000E+00 -0.00000000000E+00  0.11368683772E-12  0.17120000000E+03  0.17120000000E+03 0.  0.
         13    1    1    2    0    0 -0.88435834209E+01 -0.87236262960E+01  0.27871581772E+02  0.30514699048E+02  0.10566000000E+00 0. -1.
        994    1    1    2    0    0  0.22877647854E+01  0.19332580895E+01  0.27558302495E+01  0.17124837504E+03  0.17120000000E+03 0.  0.
        998    1    1    2    0    0  0.65558186355E+01  0.67903682065E+01  0.14693725843E+04  0.14694369259E+04  0.10000000000E+02 0. -1.
</event>
<event>
 5    1  0.1533416E-008  0.3775125E+03  0.7957747E-01  0.3462062E+00
         13   -1    0    0    0    0  0.00000000000E+00  0.00000000000E+00  0.14999999963E+04  0.15000000000E+04  0.10566000000E+00 0.  1.
        994   -1    0    0    0    0 -0.00000000000E+00 -0.00000000000E+00  0.11368683772E-12  0.17120000000E+03  0.17120000000E+03 0.  0.
         13    1    1    2    0    0  0.20855734591E+02  0.91446830913E-01  0.35641261870E+02  0.41295044976E+02  0.10566000000E+00 0.  1.
        994    1    1    2    0    0 -0.36599641540E+02 -0.38504695899E+01  0.99727995594E+01  0.17539457406E+03  0.17120000000E+03 0.  0.
        998    1    1    2    0    0  0.15743906949E+02  0.37590227589E+01  0.14543859348E+04  0.14545103810E+04  0.10000000000E+02 0.  1.
</event>
<event>
 5    1  0.1533416E-008  0.3760971E+03  0.7957747E-01  0.3468331E+00
         13   -1    0    0    0    0  0.00000000000E+00  0.00000000000E+00  0.14999999963E+04  0.15000000000E+04  0.10566000000E+00 0. -1.
        994   -1    0    0    0    0 -0.00000000000E+00 -0.00000000000E+00  0.11368683772E-12  0.17120000000E+03  0.17120000000E+03 0.  0.
         13    1    1    2    0    0  0.13246090308E+02  0.72515891765E+02  0.36163639459E+03  0.36907303684E+03  0.10566000000E+00 0. -1.
        994    1    1    2    0    0 -0.21994585463E+02 -0.62784516985E+02  0.21254950784E+02  0.18489691803E+03  0.17120000000E+03 0.  0.
        998    1    1    2    0    0  0.87484951556E+01 -0.97313747808E+01  0.11171086509E+04  0.11172300451E+04  0.10000000000E+02 0. -1.
</event>
<event>
 5    1  0.1533416E-008  0.3762292E+03  0.7957747E-01  0.3467744E+00
         13   -1    0    0    0    0  0.00000000000E+00  0.00000000000E+00  0.14999999963E+04  0.15000000000E+04  0.10566000000E+00 0. -1.
        994   -1    0    0    0    0 -0.00000000000E+00 -0.00000000000E+00  0.11368683772E-12  0.17120000000E+03  0.17120000000E+03 0.  0.
         13    1    1    2    0    0  0.10559661739E+03 -0.32544044808E+01  0.51049453495E+03  0.52131172836E+03  0.10566000000E+00 0. -1.
        994    1    1    2    0    0 -0.11904823609E+03 -0.96664751284E+01  0.55979986205E+02  0.21612293287E+03  0.17120000000E+03 0.  0.
        998    1    1    2    0    0  0.13451618693E+02  0.12920879609E+02  0.93352547513E+03  0.93376533877E+03  0.10000000000E+02 0. -1.
</event>
<event>
 5    1  0.1533416E-008  0.3822135E+03  0.7957747E-01  0.3441577E+00
         13   -1    0    0    0    0  0.00000000000E+00  0.00000000000E+00  0.14999999963E+04  0.15000000000E+04  0.10566000000E+00 0.  1.
        994   -1    0    0    0    0 -0.00000000000E+00 -0.00000000000E+00  0.11368683772E-12  0.17120000000E+03  0.17120000000E+03 0.  0.
         13    1    1    2    0    0 -0.80118815861E+01  0.29530531123E+02  0.14091747076E+03  0.14420120404E+03  0.10566000000E+00 0.  1.
        994    1    1    2    0    0  0.83846933109E+01 -0.29849408189E+02  0.62166614472E+01  0.17409588488E+03  0.17120000000E+03 0.  0.
        998    1    1    2    0    0 -0.37281172475E+00  0.31887706526E+00  0.13528658641E+04  0.13529029111E+04  0.10000000000E+02 0.  1.
</event>
<event>
 5    1  0.1533416E-008  0.3784881E+03  0.7957747E-01  0.3457768E+00
         13   -1    0    0    0    0  0.00000000000E+00  0.00000000000E+00  0.14999999963E+04  0.15000000000E+04  0.10566000000E+00 0.  1.
        994   -1    0    0    0    0 -0.00000000000E+00 -0.00000000000E+00  0.11368683772E-12  0.17120000000E+03  0.17120000000E+03 0.  0.
         13    1    1    2    0    0  0.23827560208E+02  0.85671622337E+02  0.27687707163E+03  0.29080629887E+03  0.10566000000E+00 0.  1.
        994    1    1    2    0    0 -0.44238908537E+01 -0.34021348454E+02  0.19752394954E+02  0.17571744383E+03  0.17120000000E+03 0.  0.
        998    1    1    2    0    0 -0.19403669355E+02 -0.51650273883E+02  0.12033705297E+04  0.12046762573E+04  0.10000000000E+02 0.  1.
</event>
<event>
 5    1  0.1533416E-008  0.3846703E+03  0.7957747E-01  0.3431072E+00
         13   -1    0    0    0    0  0.00000000000E+00  0.00000000000E+00  0.14999999963E+04  0.15000000000E+04  0.10566000000E+00 0.  1.
        994   -1    0    0    0    0 -0.00000000000E+00 -0.00000000000E+00  0.11368683772E-12  0.17120000000E+03  0.17120000000E+03 0.  0.
         13    1    1    2    0    0  0.11935985639E+02 -0.98674308930E+01  0.81123337311E+02  0.82588382755E+02  0.10566000000E+00 0.  1.
        994    1    1    2    0    0  0.19729934297E+02 -0.38564821926E+01  0.31255536488E+01  0.17240461667E+03  0.17120000000E+03 0.  0.
        998    1    1    2    0    0 -0.31665919936E+02  0.13723913086E+02  0.14157511053E+04  0.14162070006E+04  0.10000000000E+02 0.  1.
</event>
<event>
 5    1  0.1533416E-008  0.3852907E+03  0.7957747E-01  0.3428440E+00
         13   -1    0    0    0    0  0.00000000000E+00  0.00000000000E+00  0.14999999963E+04  0.15000000000E+04  0.10566000000E+00 0. -1.
        994   -1    0    0    0    0 -0.00000000000E+00 -0.00000000000E+00  0.11368683772E-12  0.17120000000E+03  0.17120000000E+03 0.  0.
         13    1    1    2    0    0 -0.12501401554E+02  0.42076885843E+01  0.60960706627E+02  0.62371536782E+02  0.10566000000E+00 0. -1.
        994    1    1    2    0    0  0.20707370341E+01 -0.30255265174E+01  0.15300240854E+01  0.17124608824E+03  0.17120000000E+03 0.  0.
        998    1    1    2    0    0  0.10430664519E+02 -0.11821620668E+01  0.14375092656E+04  0.14375823750E+04  0.10000000000E+02 0. -1.
</event>
<event>
 5    1  0.1533416E-008  0.3831711E+03  0.7957747E-01  0.3437466E+00
         13   -1    0    0    0    0  0.00000000000E+00  0.00000000000E+00  0.14999999963E+04  0.15000000000E+04  0.10566000000E+00 0. -1.
        994   -1    0    0    0    0 -0.00000000000E+00 -0.00000000000E+00  0.11368683772E-12  0.17120000000E+03  0.17120000000E+03 0.  0.
         13    1    1    2    0    0  0.22958182637E+02 -0.66264801227E+01  0.10839520470E+03  0.11099783761E+03  0.10566000000E+00 0. -1.
        994    1    1    2    0    0 -0.18468873095E+02  0.51483769678E+01  0.37579546653E+01  0.17231125118E+03  0.17120000000E+03 0.  0.
        998    1    1    2    0    0 -0.44893095423E+01  0.14781031548E+01  0.13878468369E+04  0.13878909112E+04  0.10000000000E+02 0. -1.
</event>
<event>
 5    1  0.1533416E-008  0.3854128E+03  0.7957747E-01  0.3427923E+00
         13   -1    0    0    0    0  0.00000000000E+00  0.00000000000E+00  0.14999999963E+04  0.15000000000E+04  0.10566000000E+00 0. -1.
        994   -1    0    0    0    0 -0.00000000000E+00 -0.00000000000E+00  0.11368683772E-12  0.17120000000E+03  0.17120000000E+03 0.  0.
         13    1    1    2    0    0  0.90121322719E+01 -0.11428678762E+02  0.77381890994E+02  0.78738817900E+02  0.10566000000E+00 0. -1.
        994    1    1    2    0    0  0.48459167966E+00  0.63325692525E+01  0.15578230026E+01  0.17132484664E+03  0.17120000000E+03 0.  0.
        998    1    1    2    0    0 -0.94967239515E+01  0.50961095093E+01  0.14210602823E+04  0.14211363355E+04  0.10000000000E+02 0. -1.
</event>
<event>
 5    1  0.1533416E-008  0.3758593E+03  0.7957747E-01  0.3469389E+00
         13   -1    0    0    0    0  0.00000000000E+00  0.00000000000E+00  0.14999999963E+04  0.15000000000E+04  0.10566000000E+00 0.  1.
        994   -1    0    0    0    0 -0.00000000000E+00 -0.00000000000E+00  0.11368683772E-12  0.17120000000E+03  0.17120000000E+03 0.  0.
         13    1    1    2    0    0 -0.58785834857E+01 -0.84432979161E+01  0.57579209977E+01  0.11790328314E+02  0.10566000000E+00 0.  1.
        994    1    1    2    0    0  0.36007320040E+01 -0.66639562598E+01  0.64326184192E+01  0.17148816917E+03  0.17120000000E+03 0.  0.
        998    1    1    2    0    0  0.22778514817E+01  0.15107254176E+02  0.14878094569E+04  0.14879215025E+04  0.10000000000E+02 0.  1.
</event>
<event>
 5    1  0.1533416E-008  0.3767125E+03  0.7957747E-01  0.3465599E+00
         13   -1    0    0    0    0  0.00000000000E+00  0.00000000000E+00  0.14999999963E+04  0.15000000000E+04  0.10566000000E+00 0.  1.
        994   -1    0    0    0    0 -0.00000000000E+00 -0.00000000000E+00  0.11368683772E-12  0.17120000000E+03  0.17120000000E+03 0.  0.
         13    1    1    2    0    0  0.31675810664E+02 -0.13617251043E+02  0.97351676787E+02  0.10327703832E+03  0.10566000000E+00 0.  1.
        994    1    1    2    0    0 -0.26273761462E+02  0.98559943910E+01  0.84678522470E+01  0.17369109271E+03  0.17120000000E+03 0.  0.
        998    1    1    2    0    0 -0.54020492029E+01  0.37612566521E+01  0.13941804672E+04  0.13942318690E+04  0.10000000000E+02 0.  1.
</event>
<event>
 5    1  0.1533416E-008  0.3811955E+03  0.7957747E-01  0.3445970E+00
         13   -1    0    0    0    0  0.00000000000E+00  0.00000000000E+00  0.14999999963E+04  0.15000000000E+04  0.10566000000E+00 0.  1.
        994   -1    0    0    0    0 -0.00000000000E+00 -0.00000000000E+00  0.11368683772E-12  0.17120000000E+03  0.17120000000E+03 0.  0.
         13    1    1    2    0    0 -0.21378738457E+02  0.18383372857E+02  0.11727591626E+03  0.12061778706E+03  0.10566000000E+00 0.  1.
        994    1    1    2    0    0  0.36329565756E+01 -0.88150308752E+01  0.38336383609E+01  0.17150813370E+03  0.17120000000E+03 0.  0.
        998    1    1    2    0    0  0.17745781881E+02 -0.95683419817E+01  0.13788904417E+04  0.13790740792E+04  0.10000000000E+02 0.  1.
</event>
<event>
 5    1  0.1533416E-008  0.3789952E+03  0.7957747E-01  0.3455545E+00
         13   -1    0    0    0    0  0.00000000000E+00  0.00000000000E+00  0.14999999963E+04  0.15000000000E+04  0.10566000000E+00 0. -1.
        994   -1    0    0    0    0 -0.00000000000E+00 -0.00000000000E+00  0.11368683772E-12  0.17120000000E+03  0.17120000000E+03 0.  0.
         13    1    1    2    0    0  0.32854224914E+01 -0.21565934312E+02  0.50314733775E+02  0.54840378578E+02  0.10566000000E+00 0. -1.
        994    1    1    2    0    0 -0.21696602960E+01  0.95067347000E+01  0.49602106801E+01  0.17154920321E+03  0.17120000000E+03 0.  0.
        998    1    1    2    0    0 -0.11157621955E+01  0.12059199612E+02  0.14447250518E+04  0.14448104182E+04  0.10000000000E+02 0. -1.
</event>
<event>
 5    1  0.1533416E-008  0.3830510E+03  0.7957747E-01  0.3437981E+00
         13   -1    0    0    0    0  0.00000000000E+00  0.00000000000E+00  0.14999999963E+04  0.15000000000E+04  0.10566000000E+00 0.  1.
        994   -1    0    0    0    0 -0.00000000000E+00 -0.00000000000E+00  0.11368683772E-12  0.17120000000E+03  0.17120000000E+03 0.  0.
         13    1    1    2    0    0 -0.19460227334E+03 -0.21054113841E+03  0.91624299489E+03  0.96005148435E+03  0.10566000000E+00 0.  1.
        994    1    1    2    0    0  0.22007918117E+03  0.21211511369E+03  0.42849337339E+03  0.55348322330E+03  0.17120000000E+03 0.  0.
        998    1    1    2    0    0 -0.25476907827E+02 -0.15739752773E+01  0.15526362800E+03  0.15766529234E+03  0.10000000000E+02 0. -1.
</event>
<event>
 5    1  0.1533416E-008  0.3841887E+03  0.7957747E-01  0.3433120E+00
         13   -1    0    0    0    0  0.00000000000E+00  0.00000000000E+00  0.14999999963E+04  0.15000000000E+04  0.10566000000E+00 0. -1.
        994   -1    0    0    0    0 -0.00000000000E+00 -0.00000000000E+00  0.11368683772E-12  0.17120000000E+03  0.17120000000E+03 0.  0.
         13    1    1    2    0    0 -0.10239515229E+02  0.14840498387E+02  0.75608440844E+02  0.77728601913E+02  0.10566000000E+00 0. -1.
        994    1    1    2    0    0  0.12210301599E+02 -0.15884307899E+02  0.33581359418E+01  0.17240104344E+03  0.17120000000E+03 0.  0.
        998    1    1    2    0    0 -0.19707863707E+01  0.10438095122E+01  0.14210334195E+04  0.14210703546E+04  0.10000000000E+02 0. -1.
</event>
<event>
 5    1  0.1533416E-008  0.3842004E+03  0.7957747E-01  0.3433071E+00
         13   -1    0    0    0    0  0.00000000000E+00  0.00000000000E+00  0.14999999963E+04  0.15000000000E+04  0.10566000000E+00 0.  1.
        994   -1    0    0    0    0 -0.00000000000E+00 -0.00000000000E+00  0.11368683772E-12  0.17120000000E+03  0.17120000000E+03 0.  0.
         13    1    1    2    0    0  0.79570949212E+01 -0.72207362698E+01  0.28541053508E+02  0.30496840677E+02  0.10566000000E+00 0.  1.
        994    1    1    2    0    0  0.15967037561E+01  0.45062337495E+01  0.21030268415E+01  0.17127964948E+03  0.17120000000E+03 0.  0.
        998    1    1    2    0    0 -0.95537986773E+01  0.27145025203E+01  0.14693559159E+04  0.14694235098E+04  0.10000000000E+02 0.  1.
</event>
<event>
 5    1  0.1533416E-008  0.3778796E+03  0.7957747E-01  0.3460444E+00
         13   -1    0    0    0    0  0.00000000000E+00  0.00000000000E+00  0.14999999963E+04  0.15000000000E+04  0.10566000000E+00 0. -1.
        994   -1    0    0    0    0 -0.00000000000E+00 -0.00000000000E+00  0.11368683772E-12  0.17120000000E+03  0.17120000000E+03 0.  0.
         13    1    1    2    0    0 -0.99165031109E+01  0.15503148527E+02  0.30534149393E+02  0.35651508964E+02  0.10566000000E+00 0. -1.
        994    1    1    2    0    0  0.26266857830E+01 -0.11400801779E+02  0.56682996313E+01  0.17169288681E+03  0.17120000000E+03 0.  0.
        998    1    1    2    0    0  0.72898173279E+01 -0.41023467488E+01  0.14637975473E+04  0.14638556042E+04  0.10000000000E+02 0. -1.
</event>
<event>
 5    1  0.1533416E-008  0.3713141E+03  0.7957747E-01  0.3489873E+00
         13   -1    0    0    0    0  0.00000000000E+00  0.00000000000E+00  0.14999999963E+04  0.15000000000E+04  0.10566000000E+00 0. -1.
        994   -1    0    0    0    0 -0.00000000000E+00 -0.00000000000E+00  0.11368683772E-12  0.17120000000E+03  0.17120000000E+03 0.  0.
         13    1    1    2    0    0 -0.13940083787E+02  0.16593867233E+02  0.24007562706E+02  0.32342798222E+02  0.10566000000E+00 0. -1.
        994    1    1    2    0    0  0.10643555686E+02 -0.51108391129E+01  0.90638201848E+01  0.17184585765E+03  0.17120000000E+03 0.  0.
        998    1    1    2    0    0  0.32965281008E+01 -0.11483028120E+02  0.14669286134E+04  0.14670113441E+04  0.10000000000E+02 0. -1.
</event>
<event>
 5    1  0.1533416E-008  0.3750180E+03  0.7957747E-01  0.3473142E+00
         13   -1    0    0    0    0  0.00000000000E+00  0.00000000000E+00  0.14999999963E+04  0.15000000000E+04  0.10566000000E+00 0. -1.
        994   -1    0    0    0    0 -0.00000000000E+00 -0.00000000000E+00  0.11368683772E-12  0.17120000000E+03  0.17120000000E+03 0.  0.
         13    1    1    2    0    0 -0.15656889403E+02  0.82923035340E+01  0.21145806781E+02  0.27587257786E+02  0.10566000000E+00 0. -1.
        994    1    1    2    0    0 -0.28152639195E+01 -0.12589463108E+02  0.72353684997E+01  0.17183774571E+03  0.17120000000E+03 0.  0.
        998    1    1    2    0    0  0.18472153323E+02  0.42971595745E+01  0.14716188210E+04  0.14717749965E+04  0.10000000000E+02 0. -1.
</event>
<event>
 5    1  0.1625562E-008  0.3856468E+03  0.7957747E-01  0.3426934E+00
         13   -1    0    0    0    0  0.00000000000E+00  0.00000000000E+00  0.14999999963E+04  0.15000000000E+04  0.10566000000E+00 0.  1.
        994   -1    0    0    0    0 -0.00000000000E+00 -0.00000000000E+00  0.11368683772E-12  0.17120000000E+03  0.17120000000E+03 0.  0.
         13    1    1    2    0    0  0.88207071239E+01  0.11549207555E+02  0.86390258804E+02  0.87604092653E+02  0.10566000000E+00 0.  1.
        994    1    1    2    0    0 -0.31550430393E+01 -0.16980705954E-01  0.13420097500E+01  0.17123432943E+03  0.17120000000E+03 0.  0.
        998    1    1    2    0    0 -0.56656640845E+01 -0.11532226849E+02  0.14122677277E+04  0.14123615779E+04  0.10000000000E+02 0.  1.
</event>
<event>
 5    1  0.1533416E-008  0.3848561E+03  0.7957747E-01  0.3430283E+00
         13   -1    0    0    0    0  0.00000000000E+00  0.00000000000E+00  0.14999999963E+04  0.15000000000E+04  0.10566000000E+00 0.  1.
        994   -1    0    0    0    0 -0.00000000000E+00 -0.00000000000E+00  0.11368683772E-12  0.17120000000E+03  0.17120000000E+03 0.  0.
         13    1    1    2    0    0 -0.73151645126E+01  0.12409783376E+02  0.58989544060E+02  0.60723074920E+02  0.10566000000E+00 0.  1.
        994    1    1    2    0    0  0.62128689880E+01 -0.13677838658E+02  0.24445061677E+01  0.17187524145E+03  0.17120000000E+03 0.  0.
        998    1    1    2    0    0  0.11022955246E+01  0.12680552818E+01  0.14385659461E+04  0.14386016836E+04  0.10000000000E+02 0.  1.
</event>
<event>
 5    1  0.1533416E-008  0.3763944E+03  0.7957747E-01  0.3467010E+00
         13   -1    0    0    0    0  0.00000000000E+00  0.00000000000E+00  0.14999999963E+04  0.15000000000E+04  0.10566000000E+00 0. -1.
        994   -1    0    0    0    0 -0.00000000000E+00 -0.00000000000E+00  0.11368683772E-12  0.17120000000E+03  0.17120000000E+03 0.  0.
         13    1    1    2    0    0 -0.27597623640E+02  0.16250543804E+02  0.92336896325E+02  0.97733426172E+02  0.10566000000E+00 0. -1.
        994    1    1    2    0    0 -0.75729088561E+01 -0.75734945068E+01  0.63526135150E+01  0.17165227195E+03  0.17120000000E+03 0.  0.
        998    1    1    2    0    0  0.35170532496E+02 -0.86770492977E+01  0.14013104864E+04  0.14018143019E+04  0.10000000000E+02 0. -1.
</event>
<event>
 5    1  0.1533416E-008  0.3861416E+03  0.7957747E-01  0.3424845E+00
         13   -1    0    0    0    0  0.00000000000E+00  0.00000000000E+00  0.14999999963E+04  0.15000000000E+04  0.10566000000E+00 0.  1.
        994   -1    0    0    0    0 -0.00000000000E+00 -0.00000000000E+00  0.11368683772E-12  0.17120000000E+03  0.17120000000E+03 0.  0.
         13    1    1    2    0    0 -0.10648980850E+02 -0.42748703489E+00  0.51815837178E+02  0.52900620836E+02  0.10566000000E+00 0.  1.
        994    1    1    2    0    0  0.14252180472E+02 -0.12797692137E+02  0.22674883051E+01  0.17228315958E+03  0.17120000000E+03 0.  0.
        998    1    1    2    0    0 -0.36031996225E+01  0.13225179172E+02  0.14459166708E+04  0.14460162196E+04  0.10000000000E+02 0.  1.
</event>
<event>
 5    1  0.1533416E-008  0.3753024E+03  0.7957747E-01  0.3471871E+00
         13   -1    0    0    0    0  0.00000000000E+00  0.00000000000E+00  0.14999999963E+04  0.15000000000E+04  0.10566000000E+00 0. -1.
        994   -1    0    0    0    0 -0.00000000000E+00 -0.00000000000E+00  0.11368683772E-12  0.17120000000E+03  0.17120000000E+03 0.  0.
         13    1    1    2    0    0 -0.31332216889E+02 -0.57274204807E-01  0.68968373509E+02  0.75751955777E+02  0.10566000000E+00 0. -1.
        994    1    1    2    0    0  0.34860403615E+02  0.17480036948E+02  0.11705267673E+02  0.17597514803E+03  0.17120000000E+03 0.  0.
        998    1    1    2    0    0 -0.35281867260E+01 -0.17422762743E+02  0.14193263551E+04  0.14194728962E+04  0.10000000000E+02 0. -1.
</event>
<event>
 5    1  0.1533416E-008  0.3716558E+03  0.7957747E-01  0.3488316E+00
         13   -1    0    0    0    0  0.00000000000E+00  0.00000000000E+00  0.14999999963E+04  0.15000000000E+04  0.10566000000E+00 0.  1.
        994   -1    0    0    0    0 -0.00000000000E+00 -0.00000000000E+00  0.11368683772E-12  0.17120000000E+03  0.17120000000E+03 0.  0.
         13    1    1    2    0    0 -0.70783062445E+02 -0.11496208688E+03  0.49899415827E+03  0.51693491321E+03  0.10566000000E+00 0.  1.
        994    1    1    2    0    0  0.36932635072E+02  0.13507060239E+03  0.84353384847E+02  0.23671295000E+03  0.17120000000E+03 0.  0.
        998    1    1    2    0    0  0.33850427373E+02 -0.20108515503E+02  0.91665245317E+03  0.91755213679E+03  0.10000000000E+02 0.  1.
</event>
<event>
 5    1  0.1533416E-008  0.3837443E+03  0.7957747E-01  0.3435015E+00
         13   -1    0    0    0    0  0.00000000000E+00  0.00000000000E+00  0.14999999963E+04  0.15000000000E+04  0.10566000000E+00 0.  1.
        994   -1    0    0    0    0 -0.00000000000E+00 -0.00000000000E+00  0.11368683772E-12  0.17120000000E+03  0.17120000000E+03 0.  0.
         13    1    1    2    0    0  0.28713266397E+02  0.74743475915E+01  0.16537011656E+03  0.16801072630E+03  0.10566000000E+00 0.  1.
        994    1    1    2    0    0 -0.40070240481E+02  0.63264886577E+01  0.77079942606E+01  0.17610934616E+03  0.17120000000E+03 0.  0.
        998    1    1    2    0    0  0.11356974084E+02 -0.13800836249E+02  0.13269218855E+04  0.13270799275E+04  0.10000000000E+02 0.  1.
</event>
<event>
 5    1  0.1533416E-008  0.3700270E+03  0.7957747E-01  0.3495767E+00
         13   -1    0    0    0    0  0.00000000000E+00  0.00000000000E+00  0.14999999963E+04  0.15000000000E+04  0.10566000000E+00 0.  1.
        994   -1    0    0    0    0 -0.00000000000E+00 -0.00000000000E+00  0.11368683772E-12  0.17120000000E+03  0.17120000000E+03 0.  0.
         13    1    1    2    0    0 -0.34699554724E+02 -0.43294428830E+01  0.63819308504E+02  0.72771687322E+02  0.10566000000E+00 0.  1.
        994    1    1    2    0    0  0.16526459667E+02  0.26318393958E+01  0.10223761549E+02  0.17231951645E+03  0.17120000000E+03 0.  0.
        998    1    1    2    0    0  0.18173095057E+02  0.16976034871E+01  0.14259569262E+04  0.14261087962E+04  0.10000000000E+02 0.  1.
</event>
<event>
 5    1  0.1533416E-008  0.3838884E+03  0.7957747E-01  0.3434401E+00
         13   -1    0    0    0    0  0.00000000000E+00  0.00000000000E+00  0.14999999963E+04  0.15000000000E+04  0.10566000000E+00 0. -1.
        994   -1    0    0    0    0 -0.00000000000E+00 -0.00000000000E+00  0.11368683772E-12  0.17120000000E+03  0.17120000000E+03 0.  0.
         13    1    1    2    0    0 -0.60632077900E+01  0.11120007172E+02  0.39848966511E+02  0.41813494763E+02  0.10566000000E+00 0. -1.
        994    1    1    2    0    0 -0.87732128704E+01  0.10211593973E+02  0.27814923682E+01  0.17175104837E+03  0.17120000000E+03 0.  0.
        998    1    1    2    0    0  0.14836420660E+02 -0.21331601145E+02  0.14573695374E+04  0.14576354569E+04  0.10000000000E+02 0. -1.
</event>
<event>
 5    1  0.1533416E-008  0.3812805E+03  0.7957747E-01  0.3445602E+00
         13   -1    0    0    0    0  0.00000000000E+00  0.00000000000E+00  0.14999999963E+04  0.15000000000E+04  0.10566000000E+00 0. -1.
        994   -1    0    0    0    0 -0.00000000000E+00 -0.00000000000E+00  0.11368683772E-12  0.17120000000E+03  0.17120000000E+03 0.  0.
         13    1    1    2    0    0  0.17061008869E+02  0.15820968931E+02  0.85855161188E+02  0.88952239703E+02  0.10566000000E+00 0. -1.
        994    1    1    2    0    0  0.18325008782E+02 -0.88474474050E+01  0.48678001755E+01  0.17247382048E+03  0.17120000000E+03 0.  0.
        998    1    1    2    0    0 -0.35386017650E+02 -0.69735215259E+01  0.14092770349E+04  0.14097739398E+04  0.10000000000E+02 0. -1.
</event>
<event>
 5    1  0.1533416E-008  0.3761445E+03  0.7957747E-01  0.3468120E+00
         13   -1    0    0    0    0  0.00000000000E+00  0.00000000000E+00  0.14999999963E+04  0.15000000000E+04  0.10566000000E+00 0. -1.
        994   -1    0    0    0    0 -0.00000000000E+00 -0.00000000000E+00  0.11368683772E-12  0.17120000000E+03  0.17120000000E+03 0.  0.
         13    1    1    2    0    0 -0.44520171993E+01 -0.14765498537E+02  0.16645074542E+02  0.22691630059E+02  0.10566000000E+00 0. -1.
        994    1    1    2    0    0  0.22418163095E+01  0.16793131918E+02  0.70647241859E+01  0.17218125725E+03  0.17120000000E+03 0.  0.
        998    1    1    2    0    0  0.22102008898E+01 -0.20276333804E+01  0.14762901976E+04  0.14763271127E+04  0.10000000000E+02 0. -1.
</event>
<event>
 5    1  0.2091313E-008  0.3851105E+03  0.7957747E-01  0.3429204E+00
         13   -1    0    0    0    0  0.00000000000E+00  0.00000000000E+00  0.14999999963E+04  0.15000000000E+04  0.10566000000E+00 0. -1.
        994   -1    0    0    0    0 -0.00000000000E+00 -0.00000000000E+00  0.11368683772E-12  0.17120000000E+03  0.17120000000E+03 0.  0.
         13    1    1    2    0    0  0.10435076845E+02 -0.47389969413E+01  0.42115913258E+02  0.43647568482E+02  0.10566000000E+00 0. -1.
        994    1    1    2    0    0 -0.61412643507E+01 -0.22110220494E+00  0.16994510495E+01  0.17131868593E+03  0.17120000000E+03 0.  0.
        998    1    1    2    0    0 -0.42938124938E+01  0.49600991463E+01  0.14561846320E+04  0.14562337456E+04  0.10000000000E+02 0. -1.
</event>
<event>
 5    1  0.1533416E-008  0.3802256E+03  0.7957747E-01  0.3450177E+00
         13   -1    0    0    0    0  0.00000000000E+00  0.00000000000E+00  0.14999999963E+04  0.15000000000E+04  0.10566000000E+00 0. -1.
        994   -1    0    0    0    0 -0.00000000000E+00 -0.00000000000E+00  0.11368683772E-12  0.17120000000E+03  0.17120000000E+03 0.  0.
         13    1    1    2    0    0 -0.86913842123E+01  0.10089695729E+02  0.20208615033E+02  0.24202095054E+02  0.10566000000E+00 0. -1.
        994    1    1    2    0    0  0.90884742476E+01 -0.89571054341E+01  0.45633941743E+01  0.17173553700E+03  0.17120000000E+03 0.  0.
        998    1    1    2    0    0 -0.39709003527E+00 -0.11325902949E+01  0.14752279871E+04  0.14752623679E+04  0.10000000000E+02 0. -1.
</event>
<event>
 5    1  0.1533416E-008  0.3715975E+03  0.7957747E-01  0.3488581E+00
         13   -1    0    0    0    0  0.00000000000E+00  0.00000000000E+00  0.14999999963E+04  0.15000000000E+04  0.10566000000E+00 0. -1.
        994   -1    0    0    0    0 -0.00000000000E+00 -0.00000000000E+00  0.11368683772E-12  0.17120000000E+03  0.17120000000E+03 0.  0.
         13    1    1    2    0    0  0.45864655478E+02  0.34295467374E+02  0.16953679498E+03  0.17894826549E+03  0.10566000000E+00 0. -1.
        994    1    1    2    0    0 -0.45113029375E+02 -0.37624876583E+02  0.20397774329E+02  0.18214369590E+03  0.17120000000E+03 0.  0.
        998    1    1    2    0    0 -0.75162610325E+00  0.33294092084E+01  0.13100654270E+04  0.13101080386E+04  0.10000000000E+02 0. -1.
</event>
<event>
 5    1  0.1533416E-008  0.3755480E+03  0.7957747E-01  0.3470775E+00
         13   -1    0    0    0    0  0.00000000000E+00  0.00000000000E+00  0.14999999963E+04  0.15000000000E+04  0.10566000000E+00 0. -1.
        994   -1    0    0    0    0 -0.00000000000E+00 -0.00000000000E+00  0.11368683772E-12  0.17120000000E+03  0.17120000000E+03 0.  0.
         13    1    1    2    0    0 -0.16141744301E+02  0.17220574185E+02  0.41295783006E+02  0.47565291363E+02  0.10566000000E+00 0. -1.
        994    1    1    2    0    0  0.79353593688E+01 -0.10866210695E+02  0.70120862237E+01  0.17187103833E+03  0.17120000000E+03 0.  0.
        998    1    1    2    0    0  0.82063849321E+01 -0.63543634906E+01  0.14516921270E+04  0.14517636703E+04  0.10000000000E+02 0. -1.
</event>
<event>
 5    1  0.1533416E-008  0.3773311E+03  0.7957747E-01  0.3462862E+00
         13   -1    0    0    0    0  0.00000000000E+00  0.00000000000E+00  0.14999999963E+04  0.15000000000E+04  0.10566000000E+00 0. -1.
        994   -1    0    0    0    0 -0.00000000000E+00 -0.00000000000E+00  0.11368683772E-12  0.17120000000E+03  0.17120000000E+03 0.  0.
         13    1    1    2    0    0  0.67480392548E+01 -0.21370130656E+02  0.43181754326E+02  0.48650730609E+02  0.10566000000E+00 0. -1.
        994    1    1    2    0    0 -0.22956307368E+01  0.18118340687E+02  0.66122351505E+01  0.17229830482E+03  0.17120000000E+03 0.  0.
        998    1    1    2    0    0 -0.44524085180E+01  0.32517899681E+01  0.14502060068E+04  0.14502509646E+04  0.10000000000E+02 0. -1.
</event>
<event>
 5    1  0.1533416E-008  0.3851193E+03  0.7957747E-01  0.3429167E+00
         13   -1    0    0    0    0  0.00000000000E+00  0.00000000000E+00  0.14999999963E+04  0.15000000000E+04  0.10566000000E+00 0.  1.
        994   -1    0    0    0    0 -0.00000000000E+00 -0.00000000000E+00  0.11368683772E-12  0.17120000000E+03  0.17120000000E+03 0.  0.
         13    1    1    2    0    0  0.87406958894E+01  0.13415273610E+02  0.76411991781E+02  0.78071588831E+02  0.10566000000E+00 0.  1.
        994    1    1    2    0    0 -0.17855632232E+02 -0.12549927530E+02  0.31383601990E+01  0.17261405965E+03  0.17120000000E+03 0.  0.
        998    1    1    2    0    0  0.91149363429E+01 -0.86534607984E+00  0.14204496443E+04  0.14205143515E+04  0.10000000000E+02 0.  1.
</event>
<event>
 5    1  0.1533416E-008  0.3745097E+03  0.7957747E-01  0.3475419E+00
         13   -1    0    0    0    0  0.00000000000E+00  0.00000000000E+00  0.14999999963E+04  0.15000000000E+04  0.10566000000E+00 0.  1.
        994   -1    0    0    0    0 -0.00000000000E+00 -0.00000000000E+00  0.11368683772E-12  0.17120000000E+03  0.17120000000E+03 0.  0.
         13    1    1    2    0    0 -0.43876523154E+02  0.92715667415E+01  0.12799531470E+03  0.13562419764E+03  0.10566000000E+00 0.  1.
        994    1    1    2    0    0  0.47017741707E+02 -0.20861940568E+02  0.15993488404E+02  0.17947456720E+03  0.17120000000E+03 0.  0.
        998    1    1    2    0    0 -0.31412185531E+01  0.11590373827E+02  0.13560111932E+04  0.13561012352E+04  0.10000000000E+02 0.  1.
</event>
<event>
 5    1  0.1533416E-008  0.3809773E+03  0.7957747E-01  0.3446914E+00
         13   -1    0    0    0    0  0.00000000000E+00  0.00000000000E+00  0.14999999963E+04  0.15000000000E+04  0.10566000000E+00 0. -1.
        994   -1    0    0    0    0 -0.00000000000E+00 -0.00000000000E+00  0.11368683772E-12  0.17120000000E+03  0.17120000000E+03 0.  0.
         13    1    1    2    0    0  0.60466616546E+01  0.15317376412E+02  0.35656941934E+02  0.39276109907E+02  0.10566000000E+00 0. -1.
        994    1    1    2    0    0 -0.12600179042E+02 -0.88089883243E+01  0.44285941623E+01  0.17194596603E+03  0.17120000000E+03 0.  0.
        998    1    1    2    0    0  0.65535173877E+01 -0.65083880880E+01  0.14599144602E+04  0.14599779241E+04  0.10000000000E+02 0. -1.
</event>
<event>
 5    1  0.1533416E-008  0.3684198E+03  0.7957747E-01  0.3503185E+00
         13   -1    0    0    0    0  0.00000000000E+00  0.00000000000E+00  0.14999999963E+04  0.15000000000E+04  0.10566000000E+00 0.  1.
        994   -1    0    0    0    0 -0.00000000000E+00 -0.00000000000E+00  0.11368683772E-12  0.17120000000E+03  0.17120000000E+03 0.  0.
         13    1    1    2    0    0  0.60044147522E+02 -0.81245428287E+01  0.20706893507E+03  0.21575185487E+03  0.10566000000E+00 0.  1.
        994    1    1    2    0    0 -0.64289897111E+01  0.88162446884E+01  0.10511435937E+02  0.17186910241E+03  0.17120000000E+03 0.  0.
        998    1    1    2    0    0 -0.53615157811E+02 -0.69170185968E+00  0.12824196253E+04  0.12835790427E+04  0.10000000000E+02 0.  1.
</event>
<event>
 5    1  0.1533416E-008  0.3720046E+03  0.7957747E-01  0.3486728E+00
         13   -1    0    0    0    0  0.00000000000E+00  0.00000000000E+00  0.14999999963E+04  0.15000000000E+04  0.10566000000E+00 0. -1.
        994   -1    0    0    0    0 -0.00000000000E+00 -0.00000000000E+00  0.11368683772E-12  0.17120000000E+03  0.17120000000E+03 0.  0.
         13    1    1    2    0    0  0.17059829451E+03 -0.40923419996E+02  0.69865297300E+03  0.72034331554E+03  0.10566000000E+00 0. -1.
        994    1    1    2    0    0 -0.18468569113E+03  0.42531389004E+02  0.14383101796E+03  0.29311179657E+03  0.17120000000E+03 0.  0.
        998    1    1    2    0    0  0.14087396615E+02 -0.16079690082E+01  0.65751600531E+03  0.65774488789E+03  0.10000000000E+02 0.  0.
</event>
<event>
 5    1  0.1533416E-008  0.3844977E+03  0.7957747E-01  0.3431805E+00
         13   -1    0    0    0    0  0.00000000000E+00  0.00000000000E+00  0.14999999963E+04  0.15000000000E+04  0.10566000000E+00 0. -1.
        994   -1    0    0    0    0 -0.00000000000E+00 -0.00000000000E+00  0.11368683772E-12  0.17120000000E+03  0.17120000000E+03 0.  0.
         13    1    1    2    0    0  0.24223829804E+02 -0.65166571041E+01  0.13558324887E+03  0.13788433301E+03  0.10566000000E+00 0. -1.
        994    1    1    2    0    0 -0.51852778308E+02 -0.26229122410E+02  0.13082856487E+02  0.18126576791E+03  0.17120000000E+03 0.  0.
        998    1    1    2    0    0  0.27628948504E+02  0.32745779515E+02  0.13513338909E+04  0.13520498991E+04  0.10000000000E+02 0. -1.
</event>
<event>
 5    1  0.1533416E-008  0.3848828E+03  0.7957747E-01  0.3430169E+00
         13   -1    0    0    0    0  0.00000000000E+00  0.00000000000E+00  0.14999999963E+04  0.15000000000E+04  0.10566000000E+00 0.  1.
        994   -1    0    0    0    0 -0.00000000000E+00 -0.00000000000E+00  0.11368683772E-12  0.17120000000E+03  0.17120000000E+03 0.  0.
         13    1    1    2    0    0 -0.44617785687E+01  0.15951869552E+02  0.91103335391E+02  0.92596968059E+02  0.10566000000E+00 0.  1.
        994    1    1    2    0    0  0.19267837610E+01  0.51977962997E+01  0.17894496102E+01  0.17129907096E+03  0.17120000000E+03 0.  0.
        998    1    1    2    0    0  0.25349948077E+01 -0.21149665852E+02  0.14071072113E+04  0.14073039610E+04  0.10000000000E+02 0.  1.
</event>
<event>
 5    1  0.1533416E-008  0.3799110E+03  0.7957747E-01  0.3451546E+00
         13   -1    0    0    0    0  0.00000000000E+00  0.00000000000E+00  0.14999999963E+04  0.15000000000E+04  0.10566000000E+00 0. -1.
        994   -1    0    0    0    0 -0.00000000000E+00 -0.00000000000E+00  0.11368683772E-12  0.17120000000E+03  0.17120000000E+03 0.  0.
         13    1    1    2    0    0 -0.18488432072E+02 -0.70729585718E+01  0.45480248702E+02  0.49601542814E+02  0.10566000000E+00 0. -1.
        994    1    1    2    0    0  0.13257388709E+02 -0.99981232197E+00  0.47693690406E+01  0.17178167790E+03  0.17120000000E+03 0.  0.
        998    1    1    2    0    0  0.52310433626E+01  0.80727708938E+01  0.14497503785E+04  0.14498167793E+04  0.10000000000E+02 0. -1.
</event>
<event>
 5    1  0.1533416E-008  0.3793254E+03  0.7957747E-01  0.3454101E+00
         13   -1    0    0    0    0  0.00000000000E+00  0.00000000000E+00  0.14999999963E+04  0.15000000000E+04  0.10566000000E+00 0. -1.
        994   -1    0    0    0    0 -0.00000000000E+00 -0.00000000000E+00  0.11368683772E-12  0.17120000000E+03  0.17120000000E+03 0.  0.
         13    1    1    2    0    0 -0.10886201669E+02 -0.22718537221E+02  0.68602555397E+02  0.73081893047E+02  0.10566000000E+00 0. -1.
        994    1    1    2    0    0  0.85520849681E+01  0.16220738570E+02  0.56014483292E+01  0.17227033041E+03  0.17120000000E+03 0.  0.
        998    1    1    2    0    0  0.23341167004E+01  0.64977986517E+01  0.14257959926E+04  0.14258477765E+04  0.10000000000E+02 0. -1.
</event>
<event>
 5    1  0.1533416E-008  0.3839845E+03  0.7957747E-01  0.3433990E+00
         13   -1    0    0    0    0  0.00000000000E+00  0.00000000000E+00  0.14999999963E+04  0.15000000000E+04  0.10566000000E+00 0.  1.
        994   -1    0    0    0    0 -0.00000000000E+00 -0.00000000000E+00  0.11368683772E-12  0.17120000000E+03  0.17120000000E+03 0.  0.
         13    1    1    2    0    0  0.17498888837E+02  0.13038895886E+02  0.11904269946E+03  0.12102644081E+03  0.10566000000E+00 0.  1.
        994    1    1    2    0    0 -0.71578052532E+01  0.19669929122E+01  0.23169663229E+01  0.17137651989E+03  0.17120000000E+03 0.  0.
        998    1    1    2    0    0 -0.10341083584E+02 -0.15005888798E+02  0.13786403305E+04  0.13787970393E+04  0.10000000000E+02 0.  1.
</event>
<event>
 5    1  0.1533416E-008  0.3742722E+03  0.7957747E-01  0.3476484E+00
         13   -1    0    0    0    0  0.00000000000E+00  0.00000000000E+00  0.14999999963E+04  0.15000000000E+04  0.10566000000E+00 0. -1.
        994   -1    0    0    0    0 -0.00000000000E+00 -0.00000000000E+00  0.11368683772E-12  0.17120000000E+03  0.17120000000E+03 0.  0.
         13    1    1    2    0    0  0.20571719463E+02 -0.31724184501E+02  0.10818440821E+03  0.11460146975E+03  0.10566000000E+00 0. -1.
        994    1    1    2    0    0 -0.76474606976E+01 -0.22361741251E+01  0.72692927614E+01  0.17153940290E+03  0.17120000000E+03 0.  0.
        998    1    1    2    0    0 -0.12924258765E+02  0.33960358626E+02  0.13845462953E+04  0.13850591274E+04  0.10000000000E+02 0. -1.
</event>
<event>
 5    1  0.1533416E-008  0.3712845E+03  0.7957747E-01  0.3490008E+00
         13   -1    0    0    0    0  0.00000000000E+00  0.00000000000E+00  0.14999999963E+04  0.15000000000E+04  0.10566000000E+00 0. -1.
        994   -1    0    0    0    0 -0.00000000000E+00 -0.00000000000E+00  0.11368683772E-12  0.17120000000E+03  0.17120000000E+03 0.  0.
         13    1    1    2    0    0  0.50634875639E+02  0.13096425160E+02  0.20052181560E+03  0.20723034690E+03  0.10566000000E+00 0. -1.
        994    1    1    2    0    0  0.29788349018E+01  0.39434809629E+02  0.14002253518E+02  0.17626537031E+03  0.17120000000E+03 0.  0.
        998    1    1    2    0    0 -0.53613710540E+02 -0.52531234789E+02  0.12854759272E+04  0.12877042828E+04  0.10000000000E+02 0. -1.
</event>
<event>
 5    1  0.1533416E-008  0.3834520E+03  0.7957747E-01  0.3436264E+00
         13   -1    0    0    0    0  0.00000000000E+00  0.00000000000E+00  0.14999999963E+04  0.15000000000E+04  0.10566000000E+00 0. -1.
        994   -1    0    0    0    0 -0.00000000000E+00 -0.00000000000E+00  0.11368683772E-12  0.17120000000E+03  0.17120000000E+03 0.  0.
         13    1    1    2    0    0 -0.27471175321E+01 -0.19983066518E+02  0.91523871700E+02  0.93720327876E+02  0.10566000000E+00 0. -1.
        994    1    1    2    0    0  0.24409504492E+02 -0.31146641188E+01  0.44046066567E+01  0.17301550682E+03  0.17120000000E+03 0.  0.
        998    1    1    2    0    0 -0.21662386960E+02  0.23097730637E+02  0.14040715179E+04  0.14044641653E+04  0.10000000000E+02 0. -1.
</event>
<event>
 5    1  0.1533416E-008  0.3738935E+03  0.7957747E-01  0.3478186E+00
         13   -1    0    0    0    0  0.00000000000E+00  0.00000000000E+00  0.14999999963E+04  0.15000000000E+04  0.10566000000E+00 0.  1.
        994   -1    0    0    0    0 -0.00000000000E+00 -0.00000000000E+00  0.11368683772E-12  0.17120000000E+03  0.17120000000E+03 0.  0.
         13    1    1    2    0    0 -0.16954390943E+02  0.52538526546E+01  0.18212820398E+02  0.25431718992E+02  0.10566000000E+00 0.  1.
        994    1    1    2    0    0  0.22682013856E+02  0.37995205878E+00  0.90058504889E+01  0.17293109454E+03  0.17120000000E+03 0.  0.
        998    1    1    2    0    0 -0.57276229128E+01 -0.56338047134E+01  0.14727813254E+04  0.14728371865E+04  0.10000000000E+02 0.  1.
</event>
<event>
 5    1  0.1533416E-008  0.3842907E+03  0.7957747E-01  0.3432686E+00
         13   -1    0    0    0    0  0.00000000000E+00  0.00000000000E+00  0.14999999963E+04  0.15000000000E+04  0.10566000000E+00 0. -1.
        994   -1    0    0    0    0 -0.00000000000E+00 -0.00000000000E+00  0.11368683772E-12  0.17120000000E+03  0.17120000000E+03 0.  0.
         13    1    1    2    0    0  0.99264174982E+01  0.18010223371E+02  0.11365881724E+03  0.11550428481E+03  0.10566000000E+00 0. -1.
        994    1    1    2    0    0  0.37684114058E+01 -0.70415397966E+01  0.21930029554E+01  0.17140021432E+03  0.17120000000E+03 0.  0.
        998    1    1    2    0    0 -0.13694828904E+02 -0.10968683574E+02  0.13841481761E+04  0.13842955009E+04  0.10000000000E+02 0. -1.
</event>
<event>
 5    1  0.1533416E-008  0.3730674E+03  0.7957747E-01  0.3481911E+00
         13   -1    0    0    0    0  0.00000000000E+00  0.00000000000E+00  0.14999999963E+04  0.15000000000E+04  0.10566000000E+00 0.  1.
        994   -1    0    0    0    0 -0.00000000000E+00 -0.00000000000E+00  0.11368683772E-12  0.17120000000E+03  0.17120000000E+03 0.  0.
         13    1    1    2    0    0  0.23262566646E+01  0.11887795554E+02  0.59842088206E+01  0.13511220242E+02  0.10566000000E+00 0.  1.
        994    1    1    2    0    0 -0.18425250780E+01 -0.12776155280E+02  0.82448076714E+01  0.17188380347E+03  0.17120000000E+03 0.  0.
        998    1    1    2    0    0 -0.48373158654E+00  0.88835972648E+00  0.14857709798E+04  0.14858049763E+04  0.10000000000E+02 0.  1.
</event>
<event>
 5    1  0.1533416E-008  0.3701818E+03  0.7957747E-01  0.3495056E+00
         13   -1    0    0    0    0  0.00000000000E+00  0.00000000000E+00  0.14999999963E+04  0.15000000000E+04  0.10566000000E+00 0.  1.
        994   -1    0    0    0    0 -0.00000000000E+00 -0.00000000000E+00  0.11368683772E-12  0.17120000000E+03  0.17120000000E+03 0.  0.
         13    1    1    2    0    0  0.19532605680E+01 -0.11063042742E+02  0.27885326815E+01  0.11575544052E+02  0.10566000000E+00 0.  1.
        994    1    1    2    0    0 -0.57576947774E+01 -0.10144516777E+02  0.96443744717E+01  0.17186772888E+03  0.17120000000E+03 0.  0.
        998    1    1    2    0    0  0.38044342094E+01  0.21207559519E+02  0.14875670891E+04  0.14877567271E+04  0.10000000000E+02 0.  1.
</event>
<event>
 5    1  0.1533416E-008  0.3826628E+03  0.7957747E-01  0.3439645E+00
         13   -1    0    0    0    0  0.00000000000E+00  0.00000000000E+00  0.14999999963E+04  0.15000000000E+04  0.10566000000E+00 0. -1.
        994   -1    0    0    0    0 -0.00000000000E+00 -0.00000000000E+00  0.11368683772E-12  0.17120000000E+03  0.17120000000E+03 0.  0.
         13    1    1    2    0    0 -0.76973316119E+01 -0.14117676745E+02  0.47268681194E+02  0.49928920442E+02  0.10566000000E+00 0. -1.
        994    1    1    2    0    0  0.20724900411E+02 -0.97919220596E+01  0.45379589669E+01  0.17278725736E+03  0.17120000000E+03 0.  0.
        998    1    1    2    0    0 -0.13027568799E+02  0.23909598805E+02  0.14481933561E+04  0.14484838222E+04  0.10000000000E+02 0. -1.
</event>
<event>
 5    1  0.1533416E-008  0.3805439E+03  0.7957747E-01  0.3448794E+00
         13   -1    0    0    0    0  0.00000000000E+00  0.00000000000E+00  0.14999999963E+04  0.15000000000E+04  0.10566000000E+00 0.  1.
        994   -1    0    0    0    0 -0.00000000000E+00 -0.00000000000E+00  0.11368683772E-12  0.17120000000E+03  0.17120000000E+03 0.  0.
         13    1    1    2    0    0  0.13438156747E+02  0.47590610545E+01  0.24625117270E+02  0.28454178665E+02  0.10566000000E+00 0.  1.
        994    1    1    2    0    0 -0.12043604864E+02 -0.19824914224E+01  0.43561499744E+01  0.17168982129E+03  0.17120000000E+03 0.  0.
        998    1    1    2    0    0 -0.13945518827E+01 -0.27765696321E+01  0.14710187290E+04  0.14710560001E+04  0.10000000000E+02 0.  1.
</event>
<event>
 5    1  0.1533416E-008  0.3802607E+03  0.7957747E-01  0.3450024E+00
         13   -1    0    0    0    0  0.00000000000E+00  0.00000000000E+00  0.14999999963E+04  0.15000000000E+04  0.10566000000E+00 0.  1.
        994   -1    0    0    0    0 -0.00000000000E+00 -0.00000000000E+00  0.11368683772E-12  0.17120000000E+03  0.17120000000E+03 0.  0.
         13    1    1    2    0    0 -0.12166340048E+02  0.34167875054E+02  0.20555661629E+03  0.20873187868E+03  0.10566000000E+00 0.  1.
        994    1    1    2    0    0  0.55316935119E+02  0.22073889940E+02  0.15941764451E+02  0.18196373205E+03  0.17120000000E+03 0.  0.
        998    1    1    2    0    0 -0.43150595071E+02 -0.56241764994E+02  0.12785016155E+04  0.12805043893E+04  0.10000000000E+02 0.  1.
</event>
<event>
 5    1  0.1533416E-008  0.3854776E+03  0.7957747E-01  0.3427649E+00
         13   -1    0    0    0    0  0.00000000000E+00  0.00000000000E+00  0.14999999963E+04  0.15000000000E+04  0.10566000000E+00 0. -1.
        994   -1    0    0    0    0 -0.00000000000E+00 -0.00000000000E+00  0.11368683772E-12  0.17120000000E+03  0.17120000000E+03 0.  0.
         13    1    1    2    0    0  0.11457664525E+02 -0.95922161268E+01  0.81843174295E+02  0.83196183983E+02  0.10566000000E+00 0. -1.
        994    1    1    2    0    0 -0.39951016968E+01  0.71415962816E+01  0.16131283465E+01  0.17140304962E+03  0.17120000000E+03 0.  0.
        998    1    1    2    0    0 -0.74625628285E+01  0.24506198452E+01  0.14165436936E+04  0.14166007664E+04  0.10000000000E+02 0. -1.
</event>
<event>
 5    1  0.1533416E-008  0.3820080E+03  0.7957747E-01  0.3442462E+00
         13   -1    0    0    0    0  0.00000000000E+00  0.00000000000E+00  0.14999999963E+04  0.15000000000E+04  0.10566000000E+00 0.  1.
        994   -1    0    0    0    0 -0.00000000000E+00 -0.00000000000E+00  0.11368683772E-12  0.17120000000E+03  0.17120000000E+03 0.  0.
         13    1    1    2    0    0  0.17157744853E+02  0.30367594174E+02  0.17389187174E+03  0.17735549951E+03  0.10566000000E+00 0.  1.
        994    1    1    2    0    0 -0.30349823603E+02 -0.22944241756E+02  0.79450479457E+01  0.17555658293E+03  0.17120000000E+03 0.  0.
        998    1    1    2    0    0  0.13192078749E+02 -0.74233524187E+01  0.13181630766E+04  0.13182879176E+04  0.10000000000E+02 0.  1.
</event>
<event>
 5    1  0.1533416E-008  0.3871265E+03  0.7957747E-01  0.3420703E+00
         13   -1    0    0    0    0  0.00000000000E+00  0.00000000000E+00  0.14999999963E+04  0.15000000000E+04  0.10566000000E+00 0. -1.
        994   -1    0    0    0    0 -0.00000000000E+00 -0.00000000000E+00  0.11368683772E-12  0.17120000000E+03  0.17120000000E+03 0.  0.
         13    1    1    2    0    0  0.14086435632E+01 -0.76296497226E+02  0.16457428425E+03  0.18140519829E+03  0.10566000000E+00 0. -1.
        994    1    1    2    0    0  0.98477343862E+02  0.23479540586E+01  0.57380814076E+02  0.20568251741E+03  0.17120000000E+03 0.  0.
        998    1    1    2    0    0 -0.99885987425E+02  0.73948543168E+02  0.12780448980E+04  0.12841122843E+04  0.10000000000E+02 0. -1.
</event>
<event>
 5    1  0.1533416E-008  0.3796830E+03  0.7957747E-01  0.3452540E+00
         13   -1    0    0    0    0  0.00000000000E+00  0.00000000000E+00  0.14999999963E+04  0.15000000000E+04  0.10566000000E+00 0.  1.
        994   -1    0    0    0    0 -0.00000000000E+00 -0.00000000000E+00  0.11368683772E-12  0.17120000000E+03  0.17120000000E+03 0.  0.
         13    1    1    2    0    0  0.40028489556E+01  0.33496353276E+02  0.14939546498E+03  0.15315692803E+03  0.10566000000E+00 0.  1.
        994    1    1    2    0    0 -0.46019713921E+01  0.12568960223E+01  0.43694064493E+01  0.17132218082E+03  0.17120000000E+03 0.  0.
        998    1    1    2    0    0  0.59912243648E+00 -0.34753249298E+02  0.13462351248E+04  0.13467208912E+04  0.10000000000E+02 0.  1.
</event>
<event>
 5    1  0.1533416E-008  0.3823717E+03  0.7957747E-01  0.3440896E+00
         13   -1    0    0    0    0  0.00000000000E+00  0.00000000000E+00  0.14999999963E+04  0.15000000000E+04  0.10566000000E+00 0.  1.
        994   -1    0    0    0    0 -0.00000000000E+00 -0.00000000000E+00  0.11368683772E-12  0.17120000000E+03  0.17120000000E+03 0.  0.
         13    1    1    2    0    0  0.27291976341E+02 -0.73238051784E+01  0.15110032325E+03  0.15371990419E+03  0.10566000000E+00 0.  1.
        994    1    1    2    0    0 -0.16815349301E+01  0.71551969877E+00  0.29517671807E+01  0.17123519632E+03  0.17120000000E+03 0.  0.
        998    1    1    2    0    0 -0.25610441411E+02  0.66082854796E+01  0.13459479059E+04  0.13462448995E+04  0.10000000000E+02 0.  1.
</event>
<event>
 5    1  0.1533416E-008  0.3835741E+03  0.7957747E-01  0.3435742E+00
         13   -1    0    0    0    0  0.00000000000E+00  0.00000000000E+00  0.14999999963E+04  0.15000000000E+04  0.10566000000E+00 0.  1.
        994   -1    0    0    0    0 -0.00000000000E+00 -0.00000000000E+00  0.11368683772E-12  0.17120000000E+03  0.17120000000E+03 0.  0.
         13    1    1    2    0    0  0.25017410718E+01  0.18537759581E+02  0.77401593006E+02  0.79629925295E+02  0.10566000000E+00 0.  1.
        994    1    1    2    0    0  0.45033811230E+00 -0.49097869408E+01  0.24200641431E+01  0.17128807758E+03  0.17120000000E+03 0.  0.
        998    1    1    2    0    0 -0.29520791841E+01 -0.13627972640E+02  0.14201783391E+04  0.14202819971E+04  0.10000000000E+02 0.  1.
</event>
<event>
 5    1  0.1533416E-008  0.3838484E+03  0.7957747E-01  0.3434571E+00
         13   -1    0    0    0    0  0.00000000000E+00  0.00000000000E+00  0.14999999963E+04  0.15000000000E+04  0.10566000000E+00 0.  1.
        994   -1    0    0    0    0 -0.00000000000E+00 -0.00000000000E+00  0.11368683772E-12  0.17120000000E+03  0.17120000000E+03 0.  0.
         13    1    1    2    0    0 -0.36246991027E+01  0.15213004168E+02  0.55105915226E+02  0.57282169969E+02  0.10566000000E+00 0.  1.
        994    1    1    2    0    0  0.55163461975E+01 -0.89080819146E+01  0.25654533069E+01  0.17153951600E+03  0.17120000000E+03 0.  0.
        998    1    1    2    0    0 -0.18916470949E+01 -0.63049222532E+01  0.14423286277E+04  0.14423783140E+04  0.10000000000E+02 0.  1.
</event>
<event>
 5    1  0.1533416E-008  0.3763183E+03  0.7957747E-01  0.3467348E+00
         13   -1    0    0    0    0  0.00000000000E+00  0.00000000000E+00  0.14999999963E+04  0.15000000000E+04  0.10566000000E+00 0.  1.
        994   -1    0    0    0    0 -0.00000000000E+00 -0.00000000000E+00  0.11368683772E-12  0.17120000000E+03  0.17120000000E+03 0.  0.
         13    1    1    2    0    0  0.48989596557E+02  0.14160547051E+02  0.20231649229E+03  0.20864437659E+03  0.10566000000E+00 0.  1.
        994    1    1    2    0    0 -0.29181852025E+02 -0.43526936956E+02  0.15353968780E+02  0.17969796628E+03  0.17120000000E+03 0.  0.
        998    1    1    2    0    0 -0.19807744532E+02  0.29366389905E+02  0.12823295352E+04  0.12828576571E+04  0.10000000000E+02 0.  1.
</event>
<event>
 5    1  0.1533416E-008  0.3848875E+03  0.7957747E-01  0.3430149E+00
         13   -1    0    0    0    0  0.00000000000E+00  0.00000000000E+00  0.14999999963E+04  0.15000000000E+04  0.10566000000E+00 0. -1.
        994   -1    0    0    0    0 -0.00000000000E+00 -0.00000000000E+00  0.11368683772E-12  0.17120000000E+03  0.17120000000E+03 0.  0.
         13    1    1    2    0    0 -0.18584476380E+02 -0.28044773823E+01  0.11187022919E+03  0.11343812057E+03  0.10566000000E+00 0. -1.
        994    1    1    2    0    0  0.35150198317E+01  0.35178068641E+01  0.17673622841E+01  0.17128132969E+03  0.17120000000E+03 0.  0.
        998    1    1    2    0    0  0.15069456548E+02 -0.71332948186E+00  0.13863624048E+04  0.13864805497E+04  0.10000000000E+02 0. -1.
</event>
<event>
 5    1  0.1533416E-008  0.3788488E+03  0.7957747E-01  0.3456187E+00
         13   -1    0    0    0    0  0.00000000000E+00  0.00000000000E+00  0.14999999963E+04  0.15000000000E+04  0.10566000000E+00 0.  1.
        994   -1    0    0    0    0 -0.00000000000E+00 -0.00000000000E+00  0.11368683772E-12  0.17120000000E+03  0.17120000000E+03 0.  0.
         13    1    1    2    0    0 -0.16676030504E+02  0.18018136647E+02  0.65366135433E+02  0.69824680930E+02  0.10566000000E+00 0.  1.
        994    1    1    2    0    0  0.70187535599E+00 -0.36245855368E+01  0.47611509874E+01  0.17130598007E+03  0.17120000000E+03 0.  0.
        998    1    1    2    0    0  0.15974155148E+02 -0.14393551110E+02  0.14298727099E+04  0.14300693390E+04  0.10000000000E+02 0.  1.
</event>
<event>
 5    1  0.1533416E-008  0.3832766E+03  0.7957747E-01  0.3437014E+00
         13   -1    0    0    0    0  0.00000000000E+00  0.00000000000E+00  0.14999999963E+04  0.15000000000E+04  0.10566000000E+00 0.  1.
        994   -1    0    0    0    0 -0.00000000000E+00 -0.00000000000E+00  0.11368683772E-12  0.17120000000E+03  0.17120000000E+03 0.  0.
         13    1    1    2    0    0 -0.24910147640E+02  0.17915787836E+02  0.17161381213E+03  0.17433531653E+03  0.10566000000E+00 0.  1.
        994    1    1    2    0    0  0.15032240890E+02 -0.29905896419E+02  0.62021057760E+01  0.17455153114E+03  0.17120000000E+03 0.  0.
        998    1    1    2    0    0  0.98779067500E+01  0.11990108583E+02  0.13221840784E+04  0.13223131523E+04  0.10000000000E+02 0.  1.
</event>
<event>
 5    1  0.1533416E-008  0.3749798E+03  0.7957747E-01  0.3473313E+00
         13   -1    0    0    0    0  0.00000000000E+00  0.00000000000E+00  0.14999999963E+04  0.15000000000E+04  0.10566000000E+00 0.  1.
        994   -1    0    0    0    0 -0.00000000000E+00 -0.00000000000E+00  0.11368683772E-12  0.17120000000E+03  0.17120000000E+03 0.  0.
         13    1    1    2    0    0 -0.18594334826E+01 -0.23976228120E+02  0.42841424291E+02  0.49129581792E+02  0.10566000000E+00 0.  1.
        994    1    1    2    0    0  0.29325636097E+01 -0.24393287599E+01  0.67385651007E+01  0.17137502302E+03  0.17120000000E+03 0.  0.
        998    1    1    2    0    0 -0.10731301271E+01  0.26415556880E+02  0.14504200069E+04  0.14506953952E+04  0.10000000000E+02 0.  1.
</event>
<event>
 5    1  0.1533416E-008  0.3857614E+03  0.7957747E-01  0.3426449E+00
         13   -1    0    0    0    0  0.00000000000E+00  0.00000000000E+00  0.14999999963E+04  0.15000000000E+04  0.10566000000E+00 0.  1.
        994   -1    0    0    0    0 -0.00000000000E+00 -0.00000000000E+00  0.11368683772E-12  0.17120000000E+03  0.17120000000E+03 0.  0.
         13    1    1    2    0    0  0.10839000609E+02 -0.74103282017E+01  0.69610615868E+02  0.70838166999E+02  0.10566000000E+00 0.  1.
        994    1    1    2    0    0 -0.66574863986E+01  0.48779020349E+01  0.14760782231E+01  0.17140517746E+03  0.17120000000E+03 0.  0.
        998    1    1    2    0    0 -0.41815142107E+01  0.25324261668E+01  0.14289133022E+04  0.14289566555E+04  0.10000000000E+02 0.  1.
</event>
<event>
 5    1  0.1533416E-008  0.3709832E+03  0.7957747E-01  0.3491385E+00
         13   -1    0    0    0    0  0.00000000000E+00  0.00000000000E+00  0.14999999963E+04  0.15000000000E+04  0.10566000000E+00 0.  1.
        994   -1    0    0    0    0 -0.00000000000E+00 -0.00000000000E+00  0.11368683772E-12  0.17120000000E+03  0.17120000000E+03 0.  0.
         13    1    1    2    0    0 -0.72470599528E+02 -0.26440242834E+01  0.32876722476E+03  0.33667028069E+03  0.10566000000E+00 0.  1.
        994    1    1    2    0    0  0.32278012201E+02 -0.44037059075E+02  0.19099970727E+02  0.18070800072E+03  0.17120000000E+03 0.  0.
        998    1    1    2    0    0  0.40192587326E+02  0.46681083358E+02  0.11521328008E+04  0.11538217186E+04  0.10000000000E+02 0.  1.
</event>
<event>
 5    1  0.1533416E-008  0.3834828E+03  0.7957747E-01  0.3436132E+00
         13   -1    0    0    0    0  0.00000000000E+00  0.00000000000E+00  0.14999999963E+04  0.15000000000E+04  0.10566000000E+00 0.  1.
        994   -1    0    0    0    0 -0.00000000000E+00 -0.00000000000E+00  0.11368683772E-12  0.17120000000E+03  0.17120000000E+03 0.  0.
         13    1    1    2    0    0  0.68499241549E+01 -0.16699863032E+02  0.68170629672E+02  0.70519875213E+02  0.10566000000E+00 0.  1.
        994    1    1    2    0    0  0.25226476042E+02  0.22542299843E+02  0.61770246307E+01  0.17461994734E+03  0.17120000000E+03 0.  0.
        998    1    1    2    0    0 -0.32076400197E+02 -0.58424368113E+01  0.14256523420E+04  0.14260601774E+04  0.10000000000E+02 0.  1.
</event>
<event>
 5    1  0.1533416E-008  0.3694484E+03  0.7957747E-01  0.3498430E+00
         13   -1    0    0    0    0  0.00000000000E+00  0.00000000000E+00  0.14999999963E+04  0.15000000000E+04  0.10566000000E+00 0.  1.
        994   -1    0    0    0    0 -0.00000000000E+00 -0.00000000000E+00  0.11368683772E-12  0.17120000000E+03  0.17120000000E+03 0.  0.
         13    1    1    2    0    0 -0.35829939203E+02  0.39563203877E+01  0.58083600651E+02  0.68360462571E+02  0.10566000000E+00 0.  1.
        994    1    1    2    0    0  0.15877398080E+02 -0.17083579110E+02  0.12547684715E+02  0.17323632655E+03  0.17120000000E+03 0.  0.
        998    1    1    2    0    0  0.19952541123E+02  0.13127258723E+02  0.14293687109E+04  0.14296032109E+04  0.10000000000E+02 0.  1.
</event>
<event>
 5    1  0.1533416E-008  0.3710264E+03  0.7957747E-01  0.3491187E+00
         13   -1    0    0    0    0  0.00000000000E+00  0.00000000000E+00  0.14999999963E+04  0.15000000000E+04  0.10566000000E+00 0.  1.
        994   -1    0    0    0    0 -0.00000000000E+00 -0.00000000000E+00  0.11368683772E-12  0.17120000000E+03  0.17120000000E+03 0.  0.
         13    1    1    2    0    0 -0.78608223200E+01 -0.46502152040E+02  0.11574708778E+03  0.12498656794E+03  0.10566000000E+00 0.  1.
        994    1    1    2    0    0  0.12702314416E+02  0.44966331216E+02  0.16293904467E+02  0.17820844833E+03  0.17120000000E+03 0.  0.
        998    1    1    2    0    0 -0.48414920963E+01  0.15358208233E+01  0.13679590040E+04  0.13680049837E+04  0.10000000000E+02 0.  1.
</event>
<event>
 5    1  0.1533416E-008  0.3739004E+03  0.7957747E-01  0.3478155E+00
         13   -1    0    0    0    0  0.00000000000E+00  0.00000000000E+00  0.14999999963E+04  0.15000000000E+04  0.10566000000E+00 0.  1.
        994   -1    0    0    0    0 -0.00000000000E+00 -0.00000000000E+00  0.11368683772E-12  0.17120000000E+03  0.17120000000E+03 0.  0.
         13    1    1    2    0    0  0.58033140148E+02 -0.94657573782E+02  0.37593054340E+03  0.39198429338E+03  0.10566000000E+00 0.  1.
        994    1    1    2    0    0 -0.61150530346E+02  0.78739405024E+02  0.49138581466E+02  0.20411595100E+03  0.17120000000E+03 0.  0.
        998    1    1    2    0    0  0.31173901977E+01  0.15918168758E+02  0.10749308714E+04  0.10750997556E+04  0.10000000000E+02 0.  1.
</event>
<event>
 5    1  0.1533416E-008  0.3844459E+03  0.7957747E-01  0.3432026E+00
         13   -1    0    0    0    0  0.00000000000E+00  0.00000000000E+00  0.14999999963E+04  0.15000000000E+04  0.10566000000E+00 0. -1.
        994   -1    0    0    0    0 -0.00000000000E+00 -0.00000000000E+00  0.11368683772E-12  0.17120000000E+03  0.17120000000E+03 0.  0.
         13    1    1    2    0    0 -0.14445890488E+02 -0.63853603547E+01  0.60948498832E+02  0.62961792007E+02  0.10566000000E+00 0. -1.
        994    1    1    2    0    0  0.21778753146E+02  0.59070174975E+01  0.35849032434E+01  0.17271797381E+03  0.17120000000E+03 0.  0.
        998    1    1    2    0    0 -0.73328626575E+01  0.47834285715E+00  0.14354665942E+04  0.14355202342E+04  0.10000000000E+02 0. -1.
</event>
<event>
 5    1  0.1533416E-008  0.3844272E+03  0.7957747E-01  0.3432105E+00
         13   -1    0    0    0    0  0.00000000000E+00  0.00000000000E+00  0.14999999963E+04  0.15000000000E+04  0.10566000000E+00 0. -1.
        994   -1    0    0    0    0 -0.00000000000E+00 -0.00000000000E+00  0.11368683772E-12  0.17120000000E+03  0.17120000000E+03 0.  0.
         13    1    1    2    0    0  0.20041999588E+02 -0.81206284892E+01  0.11372654033E+03  0.11576425828E+03  0.10566000000E+00 0. -1.
        994    1    1    2    0    0 -0.21597958850E+02  0.64509675925E+01  0.35906084772E+01  0.17271484962E+03  0.17120000000E+03 0.  0.
        998    1    1    2    0    0  0.15559592626E+01  0.16696608967E+01  0.13826828475E+04  0.13827208921E+04  0.10000000000E+02 0.  0.
</event>
<event>
 5    1  0.1533416E-008  0.3857143E+03  0.7957747E-01  0.3426648E+00
         13   -1    0    0    0    0  0.00000000000E+00  0.00000000000E+00  0.14999999963E+04  0.15000000000E+04  0.10566000000E+00 0.  1.
        994   -1    0    0    0    0 -0.00000000000E+00 -0.00000000000E+00  0.11368683772E-12  0.17120000000E+03  0.17120000000E+03 0.  0.
         13    1    1    2    0    0  0.60050742777E+01  0.12634419295E+02  0.75946476175E+02  0.77224140497E+02  0.10566000000E+00 0.  1.
        994    1    1    2    0    0 -0.28862799544E+01 -0.11295358320E+02  0.17219943143E+01  0.17160513103E+03  0.17120000000E+03 0.  0.
        998    1    1    2    0    0 -0.31187943233E+01 -0.13390609753E+01  0.14223315258E+04  0.14223707285E+04  0.10000000000E+02 0.  1.
</event>
<event>
 5    1  0.1533416E-008  0.3815600E+03  0.7957747E-01  0.3444394E+00
         13   -1    0    0    0    0  0.00000000000E+00  0.00000000000E+00  0.14999999963E+04  0.15000000000E+04  0.10566000000E+00 0.  1.
        994   -1    0    0    0    0 -0.00000000000E+00 -0.00000000000E+00  0.11368683772E-12  0.17120000000E+03  0.17120000000E+03 0.  0.
         13    1    1    2    0    0  0.13378923371E+02  0.25839791870E+02  0.13117321107E+03  0.13436187294E+03  0.10566000000E+00 0.  1.
        994    1    1    2    0    0 -0.45912518412E+01 -0.94132704257E+01  0.37126214577E+01  0.17156023086E+03  0.17120000000E+03 0.  0.
        998    1    1    2    0    0 -0.87876715301E+01 -0.16426521444E+02  0.13651141638E+04  0.13652778962E+04  0.10000000000E+02 0.  1.
</event>
<event>
 5    1  0.1533416E-008  0.3840299E+03  0.7957747E-01  0.3433797E+00
         13   -1    0    0    0    0  0.00000000000E+00  0.00000000000E+00  0.14999999963E+04  0.15000000000E+04  0.10566000000E+00 0. -1.
        994   -1    0    0    0    0 -0.00000000000E+00 -0.00000000000E+00  0.11368683772E-12  0.17120000000E+03  0.17120000000E+03 0.  0.
         13    1    1    2    0    0  0.11381760227E+02  0.42928649842E+00  0.30727179671E+02  0.32770405664E+02  0.10566000000E+00 0. -1.
        994    1    1    2    0    0 -0.25281234941E+01 -0.91014864507E+01  0.24069530904E+01  0.17147729263E+03  0.17120000000E+03 0.  0.
        998    1    1    2    0    0 -0.88536367326E+01  0.86721999523E+01  0.14668658635E+04  0.14669523017E+04  0.10000000000E+02 0. -1.
</event>
<event>
 5    1  0.1533416E-008  0.3787735E+03  0.7957747E-01  0.3456516E+00
         13   -1    0    0    0    0  0.00000000000E+00  0.00000000000E+00  0.14999999963E+04  0.15000000000E+04  0.10566000000E+00 0. -1.
        994   -1    0    0    0    0 -0.00000000000E+00 -0.00000000000E+00  0.11368683772E-12  0.17120000000E+03  0.17120000000E+03 0.  0.
         13    1    1    2    0    0 -0.14171416970E+02  0.46066921298E+01  0.21042478134E+02  0.25784641191E+02  0.10566000000E+00 0. -1.
        994    1    1    2    0    0  0.14067058137E+02 -0.87321999103E+01  0.56742064937E+01  0.17209233004E+03  0.17120000000E+03 0.  0.
        998    1    1    2    0    0  0.10435883284E+00  0.41255077805E+01  0.14732833117E+04  0.14733230288E+04  0.10000000000E+02 0. -1.
</event>
<event>
 5    1  0.1533416E-008  0.3719788E+03  0.7957747E-01  0.3486846E+00
         13   -1    0    0    0    0  0.00000000000E+00  0.00000000000E+00  0.14999999963E+04  0.15000000000E+04  0.10566000000E+00 0.  1.
        994   -1    0    0    0    0 -0.00000000000E+00 -0.00000000000E+00  0.11368683772E-12  0.17120000000E+03  0.17120000000E+03 0.  0.
         13    1    1    2    0    0  0.91718986783E+01  0.48196160131E+02  0.15204565990E+03  0.15976510081E+03  0.10566000000E+00 0.  1.
        994    1    1    2    0    0  0.52236854714E+01 -0.18304419465E+02  0.94837706756E+01  0.17251585599E+03  0.17120000000E+03 0.  0.
        998    1    1    2    0    0 -0.14395584150E+02 -0.29891740666E+02  0.13384705657E+04  0.13389190432E+04  0.10000000000E+02 0.  1.
</event>
<event>
 5    1  0.1533416E-008  0.3814906E+03  0.7957747E-01  0.3444694E+00
         13   -1    0    0    0    0  0.00000000000E+00  0.00000000000E+00  0.14999999963E+04  0.15000000000E+04  0.10566000000E+00 0. -1.
        994   -1    0    0    0    0 -0.00000000000E+00 -0.00000000000E+00  0.11368683772E-12  0.17120000000E+03  0.17120000000E+03 0.  0.
         13    1    1    2    0    0 -0.20244897871E+01  0.34928270794E+02  0.19752317364E+03  0.20059785130E+03  0.10566000000E+00 0. -1.
        994    1    1    2    0    0  0.18208246211E+02 -0.83565560264E+01  0.47189044994E+01  0.17243282842E+03  0.17120000000E+03 0.  0.
        998    1    1    2    0    0 -0.16183756424E+02 -0.26571714767E+02  0.12977579181E+04  0.12981693203E+04  0.10000000000E+02 0. -1.
</event>
<event>
 5    1  0.1533416E-008  0.3827352E+03  0.7957747E-01  0.3439335E+00
         13   -1    0    0    0    0  0.00000000000E+00  0.00000000000E+00  0.14999999963E+04  0.15000000000E+04  0.10566000000E+00 0. -1.
        994   -1    0    0    0    0 -0.00000000000E+00 -0.00000000000E+00  0.11368683772E-12  0.17120000000E+03  0.17120000000E+03 0.  0.
         13    1    1    2    0    0 -0.99764639644E+02  0.36968011151E+02  0.52608097197E+03  0.53673160649E+03  0.10566000000E+00 0. -1.
        994    1    1    2    0    0 -0.15991487619E+02 -0.45379169963E+02  0.26360067673E+02  0.17977566551E+03  0.17120000000E+03 0.  0.
        998    1    1    2    0    0  0.11575612726E+03  0.84111588120E+01  0.94755895663E+03  0.95469272799E+03  0.10000000000E+02 0. -1.
</event>
<event>
 5    1  0.1533416E-008  0.3840446E+03  0.7957747E-01  0.3433734E+00
         13   -1    0    0    0    0  0.00000000000E+00  0.00000000000E+00  0.14999999963E+04  0.15000000000E+04  0.10566000000E+00 0. -1.
        994   -1    0    0    0    0 -0.00000000000E+00 -0.00000000000E+00  0.11368683772E-12  0.17120000000E+03  0.17120000000E+03 0.  0.
         13    1    1    2    0    0  0.17890799198E+02 -0.80958014059E+01  0.91805883679E+02  0.93882661544E+02  0.10566000000E+00 0. -1.
        994    1    1    2    0    0 -0.11483595803E+02  0.23448334170E+01  0.25585155380E+01  0.17161980427E+03  0.17120000000E+03 0.  0.
        998    1    1    2    0    0 -0.64072033951E+01  0.57509679889E+01  0.14056355971E+04  0.14056975342E+04  0.10000000000E+02 0. -1.
</event>
<event>
 5    1  0.1533416E-008  0.3758341E+03  0.7957747E-01  0.3469501E+00
         13   -1    0    0    0    0  0.00000000000E+00  0.00000000000E+00  0.14999999963E+04  0.15000000000E+04  0.10566000000E+00 0. -1.
        994   -1    0    0    0    0 -0.00000000000E+00 -0.00000000000E+00  0.11368683772E-12  0.17120000000E+03  0.17120000000E+03 0.  0.
         13    1    1    2    0    0  0.12031990116E+02 -0.79857665815E+01  0.14576184392E+02  0.20518712667E+02  0.10566000000E+00 0. -1.
        994    1    1    2    0    0  0.72280079699E+01 -0.59514054198E+01  0.65482399599E+01  0.17158083451E+03  0.17120000000E+03 0.  0.
        998    1    1    2    0    0 -0.19259998086E+02  0.13937172001E+02  0.14788755719E+04  0.14791004528E+04  0.10000000000E+02 0. -1.
</event>
<event>
 5    1  0.1533416E-008  0.3729337E+03  0.7957747E-01  0.3482516E+00
         13   -1    0    0    0    0  0.00000000000E+00  0.00000000000E+00  0.14999999963E+04  0.15000000000E+04  0.10566000000E+00 0. -1.
        994   -1    0    0    0    0 -0.00000000000E+00 -0.00000000000E+00  0.11368683772E-12  0.17120000000E+03  0.17120000000E+03 0.  0.
         13    1    1    2    0    0 -0.60941445617E+01 -0.36707131347E+02  0.86562327504E+02  0.94221015684E+02  0.10566000000E+00 0. -1.
        994    1    1    2    0    0  0.32723427955E+02  0.18501293281E+02  0.12596279363E+02  0.17573055182E+03  0.17120000000E+03 0.  0.
        998    1    1    2    0    0 -0.26629283393E+02  0.18205838066E+02  0.14008413894E+04  0.14012484325E+04  0.10000000000E+02 0. -1.
</event>
<event>
 5    1  0.1533416E-008  0.3695840E+03  0.7957747E-01  0.3497805E+00
         13   -1    0    0    0    0  0.00000000000E+00  0.00000000000E+00  0.14999999963E+04  0.15000000000E+04  0.10566000000E+00 0.  1.
        994   -1    0    0    0    0 -0.00000000000E+00 -0.00000000000E+00  0.11368683772E-12  0.17120000000E+03  0.17120000000E+03 0.  0.
         13    1    1    2    0    0 -0.32042415508E+01  0.32233452755E+02  0.50349571157E+02  0.59869467345E+02  0.10566000000E+00 0.  1.
        994    1    1    2    0    0  0.44128363069E+01 -0.30263264407E+02  0.12732259023E+02  0.17437571137E+03  0.17120000000E+03 0.  0.
        998    1    1    2    0    0 -0.12085947561E+01 -0.19701883480E+01  0.14369181661E+04  0.14369548213E+04  0.10000000000E+02 0.  1.
</event>
<event>
 5    1  0.1533416E-008  0.3851669E+03  0.7957747E-01  0.3428965E+00
         13   -1    0    0    0    0  0.00000000000E+00  0.00000000000E+00  0.14999999963E+04  0.15000000000E+04  0.10566000000E+00 0.  1.
        994   -1    0    0    0    0 -0.00000000000E+00 -0.00000000000E+00  0.11368683772E-12  0.17120000000E+03  0.17120000000E+03 0.  0.
         13    1    1    2    0    0 -0.10409243051E+00 -0.12779104010E+02  0.52620444165E+02  0.54150149056E+02  0.10566000000E+00 0.  1.
        994    1    1    2    0    0  0.56871039586E+01  0.91754874088E+01  0.19304308074E+01  0.17155086500E+03  0.17120000000E+03 0.  0.
        998    1    1    2    0    0 -0.55830115281E+01  0.36036166012E+01  0.14454491213E+04  0.14454989859E+04  0.10000000000E+02 0.  1.
</event>
<event>
 5    1  0.1533416E-008  0.3832432E+03  0.7957747E-01  0.3437157E+00
         13   -1    0    0    0    0  0.00000000000E+00  0.00000000000E+00  0.14999999963E+04  0.15000000000E+04  0.10566000000E+00 0. -1.
        994   -1    0    0    0    0 -0.00000000000E+00 -0.00000000000E+00  0.11368683772E-12  0.17120000000E+03  0.17120000000E+03 0.  0.
         13    1    1    2    0    0 -0.11753311364E+02 -0.26182156665E+02  0.15499684620E+03  0.15763146625E+03  0.10566000000E+00 0. -1.
        994    1    1    2    0    0 -0.29307133618E+00  0.26568616274E+02  0.48433877747E+01  0.17331726881E+03  0.17120000000E+03 0.  0.
        998    1    1    2    0    0  0.12046382701E+02 -0.38645960873E+00  0.13401597623E+04  0.13402512649E+04  0.10000000000E+02 0. -1.
</event>
<event>
 5    1  0.1533416E-008  0.3770669E+03  0.7957747E-01  0.3464030E+00
         13   -1    0    0    0    0  0.00000000000E+00  0.00000000000E+00  0.14999999963E+04  0.15000000000E+04  0.10566000000E+00 0.  1.
        994   -1    0    0    0    0 -0.00000000000E+00 -0.00000000000E+00  0.11368683772E-12  0.17120000000E+03  0.17120000000E+03 0.  0.
         13    1    1    2    0    0  0.40115080433E+02 -0.16764404051E+02  0.15866306879E+03  0.16451214388E+03  0.10566000000E+00 0.  1.
        994    1    1    2    0    0 -0.31591311193E+02  0.11798908401E+02  0.94696424357E+01  0.17474650014E+03  0.17120000000E+03 0.  0.
        998    1    1    2    0    0 -0.85237692398E+01  0.49654956494E+01  0.13318672851E+04  0.13319413560E+04  0.10000000000E+02 0.  1.
</event>
<event>
 5    1  0.1533416E-008  0.3800382E+03  0.7957747E-01  0.3450992E+00
         13   -1    0    0    0    0  0.00000000000E+00  0.00000000000E+00  0.14999999963E+04  0.15000000000E+04  0.10566000000E+00 0. -1.
        994   -1    0    0    0    0 -0.00000000000E+00 -0.00000000000E+00  0.11368683772E-12  0.17120000000E+03  0.17120000000E+03 0.  0.
         13    1    1    2    0    0  0.28174697404E+02 -0.15718595021E+02  0.12500997816E+03  0.12910613311E+03  0.10566000000E+00 0. -1.
        994    1    1    2    0    0 -0.12495614548E+02  0.17561180290E+02  0.56681046929E+01  0.17264444053E+03  0.17120000000E+03 0.  0.
        998    1    1    2    0    0 -0.15679082856E+02 -0.18425852692E+01  0.13693219134E+04  0.13694494264E+04  0.10000000000E+02 0. -1.
</event>
<event>
 5    1  0.1533416E-008  0.3788425E+03  0.7957747E-01  0.3456214E+00
         13   -1    0    0    0    0  0.00000000000E+00  0.00000000000E+00  0.14999999963E+04  0.15000000000E+04  0.10566000000E+00 0.  1.
        994   -1    0    0    0    0 -0.00000000000E+00 -0.00000000000E+00  0.11368683772E-12  0.17120000000E+03  0.17120000000E+03 0.  0.
         13    1    1    2    0    0  0.15810973672E+02 -0.44536324475E+01  0.26403985117E+02  0.31096677065E+02  0.10566000000E+00 0.  1.
        994    1    1    2    0    0 -0.14847991561E+02  0.14576129944E+01  0.54658707020E+01  0.17193575321E+03  0.17120000000E+03 0.  0.
        998    1    1    2    0    0 -0.96298211072E+00  0.29960194531E+01  0.14681301405E+04  0.14681675697E+04  0.10000000000E+02 0.  1.
</event>
<event>
 5    1  0.1533416E-008  0.3839426E+03  0.7957747E-01  0.3434169E+00
         13   -1    0    0    0    0  0.00000000000E+00  0.00000000000E+00  0.14999999963E+04  0.15000000000E+04  0.10566000000E+00 0.  1.
        994   -1    0    0    0    0 -0.00000000000E+00 -0.00000000000E+00  0.11368683772E-12  0.17120000000E+03  0.17120000000E+03 0.  0.
         13    1    1    2    0    0  0.24185710882E+01 -0.10992091376E+02  0.29287177131E+02  0.31375555251E+02  0.10566000000E+00 0.  1.
        994    1    1    2    0    0  0.70823159629E+00  0.32450210295E+01  0.21924356428E+01  0.17124625113E+03  0.17120000000E+03 0.  0.
        998    1    1    2    0    0 -0.31268026845E+01  0.77470703463E+01  0.14685203835E+04  0.14685781936E+04  0.10000000000E+02 0.  1.
</event>
<event>
 5    1  0.1533416E-008  0.3817074E+03  0.7957747E-01  0.3443758E+00
         13   -1    0    0    0    0  0.00000000000E+00  0.00000000000E+00  0.14999999963E+04  0.15000000000E+04  0.10566000000E+00 0. -1.
        994   -1    0    0    0    0 -0.00000000000E+00 -0.00000000000E+00  0.11368683772E-12  0.17120000000E+03  0.17120000000E+03 0.  0.
         13    1    1    2    0    0 -0.42507607461E+01  0.33461533958E+02  0.17828473295E+03  0.18144751414E+03  0.10566000000E+00 0. -1.
        994    1    1    2    0    0  0.42504159010E+01 -0.15198189369E+02  0.41020472326E+01  0.17197475916E+03  0.17120000000E+03 0.  0.
        998    1    1    2    0    0  0.34484507031E-03 -0.18263344589E+02  0.13176132161E+04  0.13177777267E+04  0.10000000000E+02 0. -1.
</event>
<event>
 5    1  0.1533416E-008  0.3719552E+03  0.7957747E-01  0.3486953E+00
         13   -1    0    0    0    0  0.00000000000E+00  0.00000000000E+00  0.14999999963E+04  0.15000000000E+04  0.10566000000E+00 0. -1.
        994   -1    0    0    0    0 -0.00000000000E+00 -0.00000000000E+00  0.11368683772E-12  0.17120000000E+03  0.17120000000E+03 0.  0.
         13    1    1    2    0    0 -0.63681791715E+02 -0.66326364715E+02  0.37777114303E+03  0.38880021210E+03  0.10566000000E+00 0. -1.
        994    1    1    2    0    0  0.55027573171E+02  0.74687359018E+02  0.38414543319E+02  0.19847254859E+03  0.17120000000E+03 0.  0.
        998    1    1    2    0    0  0.86542185441E+01 -0.83609943029E+01  0.10838143099E+04  0.10839272393E+04  0.10000000000E+02 0. -1.
</event>
<event>
 5    1  0.1533416E-008  0.3768894E+03  0.7957747E-01  0.3464816E+00
         13   -1    0    0    0    0  0.00000000000E+00  0.00000000000E+00  0.14999999963E+04  0.15000000000E+04  0.10566000000E+00 0.  1.
        994   -1    0    0    0    0 -0.00000000000E+00 -0.00000000000E+00  0.11368683772E-12  0.17120000000E+03  0.17120000000E+03 0.  0.
         13    1    1    2    0    0  0.15366324946E+02  0.42916127228E+02  0.19358027197E+03  0.19887496267E+03  0.10566000000E+00 0.  1.
        994    1    1    2    0    0 -0.20302891642E+02 -0.89368050211E+01  0.73754984192E+01  0.17278863351E+03  0.17120000000E+03 0.  0.
        998    1    1    2    0    0  0.49365666960E+01 -0.33979322207E+02  0.12990442259E+04  0.12995364038E+04  0.10000000000E+02 0.  1.
</event>
<event>
 5    1  0.1533416E-008  0.3833255E+03  0.7957747E-01  0.3436805E+00
         13   -1    0    0    0    0  0.00000000000E+00  0.00000000000E+00  0.14999999963E+04  0.15000000000E+04  0.10566000000E+00 0.  1.
        994   -1    0    0    0    0 -0.00000000000E+00 -0.00000000000E+00  0.11368683772E-12  0.17120000000E+03  0.17120000000E+03 0.  0.
         13    1    1    2    0    0  0.16122660569E+02  0.63854339620E+01  0.64596792220E+02  0.66884009149E+02  0.10566000000E+00 0.  1.
        994    1    1    2    0    0  0.18606071146E+01 -0.43468887761E+00  0.24758621272E+01  0.17122856276E+03  0.17120000000E+03 0.  0.
        998    1    1    2    0    0 -0.17983267683E+02 -0.59507450844E+01  0.14329273419E+04  0.14330874281E+04  0.10000000000E+02 0.  1.
</event>
<event>
 5    1  0.1533416E-008  0.3787579E+03  0.7957747E-01  0.3456585E+00
         13   -1    0    0    0    0  0.00000000000E+00  0.00000000000E+00  0.14999999963E+04  0.15000000000E+04  0.10566000000E+00 0.  1.
        994   -1    0    0    0    0 -0.00000000000E+00 -0.00000000000E+00  0.11368683772E-12  0.17120000000E+03  0.17120000000E+03 0.  0.
         13    1    1    2    0    0  0.35632816830E+02  0.42447825722E+02  0.29167390775E+03  0.29689256503E+03  0.10566000000E+00 0.  1.
        994    1    1    2    0    0 -0.25928037514E+02 -0.34100425886E+02  0.10946138692E+02  0.17681730720E+03  0.17120000000E+03 0.  0.
        998    1    1    2    0    0 -0.97047793155E+01 -0.83473998365E+01  0.11973799498E+04  0.11974901278E+04  0.10000000000E+02 0.  1.
</event>
<event>
 5    1  0.1649384E-008  0.3846073E+03  0.7957747E-01  0.3431339E+00
         13   -1    0    0    0    0  0.00000000000E+00  0.00000000000E+00  0.14999999963E+04  0.15000000000E+04  0.10566000000E+00 0. -1.
        994   -1    0    0    0    0 -0.00000000000E+00 -0.00000000000E+00  0.11368683772E-12  0.17120000000E+03  0.17120000000E+03 0.  0.
         13    1    1    2    0    0 -0.46066922749E+01  0.10466851257E+02  0.36070286884E+02  0.37839838119E+02  0.10566000000E+00 0. -1.
        994    1    1    2    0    0  0.22170981951E+01 -0.36396285559E+01  0.18850490627E+01  0.17126341066E+03  0.17120000000E+03 0.  0.
        998    1    1    2    0    0  0.23895940798E+01 -0.68272227011E+01  0.14620446603E+04  0.14620967512E+04  0.10000000000E+02 0. -1.
</event>
<event>
 5    1  0.1533416E-008  0.3811812E+03  0.7957747E-01  0.3446031E+00
         13   -1    0    0    0    0  0.00000000000E+00  0.00000000000E+00  0.14999999963E+04  0.15000000000E+04  0.10566000000E+00 0.  1.
        994   -1    0    0    0    0 -0.00000000000E+00 -0.00000000000E+00  0.11368683772E-12  0.17120000000E+03  0.17120000000E+03 0.  0.
         13    1    1    2    0    0  0.10835571268E+02 -0.90193686147E+01  0.28326629939E+02  0.31641234847E+02  0.10566000000E+00 0.  1.
        994    1    1    2    0    0  0.50378498461E+01 -0.78151508279E+01  0.38260128361E+01  0.17149499960E+03  0.17120000000E+03 0.  0.
        998    1    1    2    0    0 -0.15873421114E+02  0.16834519443E+02  0.14678473535E+04  0.14680637656E+04  0.10000000000E+02 0.  1.
</event>
<event>
 5    1  0.1533416E-008  0.3847481E+03  0.7957747E-01  0.3430741E+00
         13   -1    0    0    0    0  0.00000000000E+00  0.00000000000E+00  0.14999999963E+04  0.15000000000E+04  0.10566000000E+00 0.  1.
        994   -1    0    0    0    0 -0.00000000000E+00 -0.00000000000E+00  0.11368683772E-12  0.17120000000E+03  0.17120000000E+03 0.  0.
         13    1    1    2    0    0 -0.67046198548E+01  0.89251532571E+01  0.36525502482E+02  0.38193373557E+02  0.10566000000E+00 0.  1.
        994    1    1    2    0    0  0.19476130971E+01  0.17153427810E+01  0.17774378169E+01  0.17122889617E+03  0.17120000000E+03 0.  0.
        998    1    1    2    0    0  0.47570067576E+01 -0.10640496038E+02  0.14616970560E+04  0.14617777303E+04  0.10000000000E+02 0.  1.
</event>
<event>
 5    1  0.1533416E-008  0.3835007E+03  0.7957747E-01  0.3436056E+00
         13   -1    0    0    0    0  0.00000000000E+00  0.00000000000E+00  0.14999999963E+04  0.15000000000E+04  0.10566000000E+00 0. -1.
        994   -1    0    0    0    0 -0.00000000000E+00 -0.00000000000E+00  0.11368683772E-12  0.17120000000E+03  0.17120000000E+03 0.  0.
         13    1    1    2    0    0 -0.36724923591E+02  0.45784008184E+01  0.21119192319E+03  0.21441017082E+03  0.10566000000E+00 0. -1.
        994    1    1    2    0    0  0.52797910094E+02 -0.23848140035E+02  0.13548182519E+02  0.18124388636E+03  0.17120000000E+03 0.  0.
        998    1    1    2    0    0 -0.16072986503E+02  0.19269739217E+02  0.12752598906E+04  0.12755459428E+04  0.10000000000E+02 0. -1.
</event>
<event>
 5    1  0.1533416E-008  0.3816560E+03  0.7957747E-01  0.3443979E+00
         13   -1    0    0    0    0  0.00000000000E+00  0.00000000000E+00  0.14999999963E+04  0.15000000000E+04  0.10566000000E+00 0. -1.
        994   -1    0    0    0    0 -0.00000000000E+00 -0.00000000000E+00  0.11368683772E-12  0.17120000000E+03  0.17120000000E+03 0.  0.
         13    1    1    2    0    0  0.32491496688E+01  0.30032265921E+02  0.15173411774E+03  0.15471182120E+03  0.10566000000E+00 0. -1.
        994    1    1    2    0    0 -0.64933797147E+00 -0.38174941388E+01  0.33493833759E+01  0.17127654034E+03  0.17120000000E+03 0.  0.
        998    1    1    2    0    0 -0.25998116973E+01 -0.26214771782E+02  0.13449164952E+04  0.13452116385E+04  0.10000000000E+02 0. -1.
</event>
<event>
 5    1  0.1533416E-008  0.3737493E+03  0.7957747E-01  0.3478836E+00
         13   -1    0    0    0    0  0.00000000000E+00  0.00000000000E+00  0.14999999963E+04  0.15000000000E+04  0.10566000000E+00 0.  1.
        994   -1    0    0    0    0 -0.00000000000E+00 -0.00000000000E+00  0.11368683772E-12  0.17120000000E+03  0.17120000000E+03 0.  0.
         13    1    1    2    0    0 -0.85771247803E+01  0.63243162096E+02  0.18750090275E+03  0.19806530317E+03  0.10566000000E+00 0.  1.
        994    1    1    2    0    0  0.20969265608E+02  0.82914628016E+01  0.14738426826E+02  0.17330643289E+03  0.17120000000E+03 0.  0.
        998    1    1    2    0    0 -0.12392140828E+02 -0.71534624898E+02  0.12977606667E+04  0.12998282639E+04  0.10000000000E+02 0.  1.
</event>
<event>
 5    1  0.1533416E-008  0.4131171E+03  0.7957747E-01  0.3318529E+00
         13   -1    0    0    0    0  0.00000000000E+00  0.00000000000E+00  0.14999999963E+04  0.15000000000E+04  0.10566000000E+00 0. -1.
        994   -1    0    0    0    0 -0.00000000000E+00 -0.00000000000E+00  0.11368683772E-12  0.17120000000E+03  0.17120000000E+03 0.  0.
         13    1    1    2    0    0  0.57266026130E+02 -0.17855762554E+02  0.37611117468E+02  0.70801365286E+02  0.10566000000E+00 0. -1.
        994    1    1    2    0    0 -0.46369093742E+02  0.21738272555E+02  0.46793464652E+02  0.18472063686E+03  0.17120000000E+03 0.  0.
        998    1    1    2    0    0 -0.10896932388E+02 -0.38825100007E+01  0.14155954142E+04  0.14156779979E+04  0.10000000000E+02 0. -1.
</event>
<event>
 5    1  0.1533416E-008  0.3800281E+03  0.7957747E-01  0.3451036E+00
         13   -1    0    0    0    0  0.00000000000E+00  0.00000000000E+00  0.14999999963E+04  0.15000000000E+04  0.10566000000E+00 0. -1.
        994   -1    0    0    0    0 -0.00000000000E+00 -0.00000000000E+00  0.11368683772E-12  0.17120000000E+03  0.17120000000E+03 0.  0.
         13    1    1    2    0    0 -0.22037977438E+02 -0.50612179182E+01  0.57667386425E+02  0.61942126194E+02  0.10566000000E+00 0. -1.
        994    1    1    2    0    0  0.26231974329E+02  0.54886935680E+01  0.65234695357E+01  0.17340772154E+03  0.17120000000E+03 0.  0.
        998    1    1    2    0    0 -0.41939968907E+01 -0.42747564973E+00  0.14358091403E+04  0.14358501523E+04  0.10000000000E+02 0. -1.
</event>
<event>
 5    1  0.1533416E-008  0.3753713E+03  0.7957747E-01  0.3471564E+00
         13   -1    0    0    0    0  0.00000000000E+00  0.00000000000E+00  0.14999999963E+04  0.15000000000E+04  0.10566000000E+00 0.  1.
        994   -1    0    0    0    0 -0.00000000000E+00 -0.00000000000E+00  0.11368683772E-12  0.17120000000E+03  0.17120000000E+03 0.  0.
         13    1    1    2    0    0 -0.59828891452E+01 -0.22388070291E+02  0.40862526067E+02  0.46976354206E+02  0.10566000000E+00 0.  1.
        994    1    1    2    0    0 -0.58298859284E+01 -0.54113130964E+00  0.66045973665E+01  0.17142736392E+03  0.17120000000E+03 0.  0.
        998    1    1    2    0    0  0.11812775074E+02  0.22929201601E+02  0.14525328728E+04  0.14527962819E+04  0.10000000000E+02 0.  1.
</event>
<event>
 5    1  0.1533416E-008  0.3770929E+03  0.7957747E-01  0.3463915E+00
         13   -1    0    0    0    0  0.00000000000E+00  0.00000000000E+00  0.14999999963E+04  0.15000000000E+04  0.10566000000E+00 0.  1.
        994   -1    0    0    0    0 -0.00000000000E+00 -0.00000000000E+00  0.11368683772E-12  0.17120000000E+03  0.17120000000E+03 0.  0.
         13    1    1    2    0    0  0.12098460159E+02  0.11721250543E+02  0.22708631458E+02  0.28274609798E+02  0.10566000000E+00 0.  1.
        994    1    1    2    0    0 -0.68644395645E+01 -0.15335977259E+02  0.65613488309E+01  0.17214762278E+03  0.17120000000E+03 0.  0.
        998    1    1    2    0    0 -0.52340205941E+01  0.36147267168E+01  0.14707300160E+04  0.14707777674E+04  0.10000000000E+02 0.  1.
</event>
<event>
 5    1  0.1533416E-008  0.2913584E+03  0.7957747E-01  0.3959712E+00
         13   -1    0    0    0    0  0.00000000000E+00  0.00000000000E+00  0.14999999963E+04  0.15000000000E+04  0.10566000000E+00 0.  1.
        994   -1    0    0    0    0 -0.00000000000E+00 -0.00000000000E+00  0.11368683772E-12  0.17120000000E+03  0.17120000000E+03 0.  0.
         13    1    1    2    0    0  0.13967346275E+03 -0.11796792000E+03  0.57617454111E+03  0.60448508611E+03  0.10566000000E+00 0.  1.
        994    1    1    2    0    0 -0.14053839494E+03  0.11916150197E+03  0.15005033281E+03  0.29287377209E+03  0.17120000000E+03 0.  0.
        998    1    1    2    0    0  0.86493219055E+00 -0.11935819680E+01  0.77377512237E+03  0.77384114180E+03  0.10000000000E+02 0.  0.
</event>
<event>
 5    1  0.1533416E-008  0.3851676E+03  0.7957747E-01  0.3428962E+00
         13   -1    0    0    0    0  0.00000000000E+00  0.00000000000E+00  0.14999999963E+04  0.15000000000E+04  0.10566000000E+00 0.  1.
        994   -1    0    0    0    0 -0.00000000000E+00 -0.00000000000E+00  0.11368683772E-12  0.17120000000E+03  0.17120000000E+03 0.  0.
         13    1    1    2    0    0 -0.14953651321E+02 -0.59433037637E+01  0.87693792035E+02  0.89157988273E+02  0.10566000000E+00 0.  1.
        994    1    1    2    0    0  0.40360169780E+01  0.21423057591E+01  0.16155888267E+01  0.17126858741E+03  0.17120000000E+03 0.  0.
        998    1    1    2    0    0  0.10917634343E+02  0.38009980046E+01  0.14106906154E+04  0.14107734243E+04  0.10000000000E+02 0.  1.
</event>
<event>
 5    1  0.1533416E-008  0.3833795E+03  0.7957747E-01  0.3436574E+00
         13   -1    0    0    0    0  0.00000000000E+00  0.00000000000E+00  0.14999999963E+04  0.15000000000E+04  0.10566000000E+00 0. -1.
        994   -1    0    0    0    0 -0.00000000000E+00 -0.00000000000E+00  0.11368683772E-12  0.17120000000E+03  0.17120000000E+03 0.  0.
         13    1    1    2    0    0  0.15949047763E+02 -0.16716734700E+01  0.55768716175E+02  0.58028678122E+02  0.10566000000E+00 0. -1.
        994    1    1    2    0    0  0.33335173018E+01  0.11233338509E+01  0.24777404226E+01  0.17125406102E+03  0.17120000000E+03 0.  0.
        998    1    1    2    0    0 -0.19282565065E+02  0.54833961913E+00  0.14417535397E+04  0.14419172609E+04  0.10000000000E+02 0. -1.
</event>
<event>
 5    1  0.1533416E-008  0.4419453E+03  0.7957747E-01  0.3219069E+00
         13   -1    0    0    0    0  0.00000000000E+00  0.00000000000E+00  0.14999999963E+04  0.15000000000E+04  0.10566000000E+00 0. -1.
        994   -1    0    0    0    0 -0.00000000000E+00 -0.00000000000E+00  0.11368683772E-12  0.17120000000E+03  0.17120000000E+03 0.  0.
         13    1    1    2    0    0 -0.21303487467E+02  0.36180951322E+02 -0.54268477010E+01  0.42336292431E+02  0.10566000000E+00 0. -1.
        994    1    1    2    0    0  0.23453261710E+02 -0.35957993697E+02  0.64524752235E+02  0.18792529486E+03  0.17120000000E+03 0.  0.
        998    1    1    2    0    0 -0.21497742423E+01 -0.22295762447E+00  0.14409020917E+04  0.14409384127E+04  0.10000000000E+02 0. -1.
</event>
<event>
 5    1  0.1533416E-008  0.3838581E+03  0.7957747E-01  0.3434529E+00
         13   -1    0    0    0    0  0.00000000000E+00  0.00000000000E+00  0.14999999963E+04  0.15000000000E+04  0.10566000000E+00 0.  1.
        994   -1    0    0    0    0 -0.00000000000E+00 -0.00000000000E+00  0.11368683772E-12  0.17120000000E+03  0.17120000000E+03 0.  0.
         13    1    1    2    0    0  0.11045984388E+02  0.12965438744E+02  0.67640469043E+02  0.69752136809E+02  0.10566000000E+00 0.  1.
        994    1    1    2    0    0 -0.77753108660E+01 -0.51868006157E+00  0.23985794905E+01  0.17139404211E+03  0.17120000000E+03 0.  0.
        998    1    1    2    0    0 -0.32706735224E+01 -0.12446758683E+02  0.14299609477E+04  0.14300538211E+04  0.10000000000E+02 0.  1.
</event>
<event>
 5    1  0.1533416E-008  0.3819551E+03  0.7957747E-01  0.3442690E+00
         13   -1    0    0    0    0  0.00000000000E+00  0.00000000000E+00  0.14999999963E+04  0.15000000000E+04  0.10566000000E+00 0. -1.
        994   -1    0    0    0    0 -0.00000000000E+00 -0.00000000000E+00  0.11368683772E-12  0.17120000000E+03  0.17120000000E+03 0.  0.
         13    1    1    2    0    0 -0.13894204683E+02  0.78538297161E+01  0.38008322305E+02  0.41223479881E+02  0.10566000000E+00 0. -1.
        994    1    1    2    0    0  0.16345835861E+02 -0.11415823993E+02  0.44708840352E+01  0.17241501150E+03  0.17120000000E+03 0.  0.
        998    1    1    2    0    0 -0.24516311785E+01  0.35619942768E+01  0.14575207899E+04  0.14575615086E+04  0.10000000000E+02 0. -1.
</event>
<event>
 5    1  0.1533416E-008  0.3842246E+03  0.7957747E-01  0.3432967E+00
         13   -1    0    0    0    0  0.00000000000E+00  0.00000000000E+00  0.14999999963E+04  0.15000000000E+04  0.10566000000E+00 0.  1.
        994   -1    0    0    0    0 -0.00000000000E+00 -0.00000000000E+00  0.11368683772E-12  0.17120000000E+03  0.17120000000E+03 0.  0.
         13    1    1    2    0    0  0.13830949246E+02  0.57168373209E+01  0.53018170726E+02  0.55090062418E+02  0.10566000000E+00 0.  1.
        994    1    1    2    0    0 -0.16330094807E+02 -0.66947296911E+01  0.30432375989E+01  0.17213422872E+03  0.17120000000E+03 0.  0.
        998    1    1    2    0    0  0.24991455613E+01  0.97789237016E+00  0.14439385880E+04  0.14439757089E+04  0.10000000000E+02 0.  1.
</event>
<event>
 5    1  0.1533416E-008  0.3825836E+03  0.7957747E-01  0.3439986E+00
         13   -1    0    0    0    0  0.00000000000E+00  0.00000000000E+00  0.14999999963E+04  0.15000000000E+04  0.10566000000E+00 0.  1.
        994   -1    0    0    0    0 -0.00000000000E+00 -0.00000000000E+00  0.11368683772E-12  0.17120000000E+03  0.17120000000E+03 0.  0.
         13    1    1    2    0    0 -0.71547087162E+01  0.24224280937E+02  0.12158151391E+03  0.12417762010E+03  0.10566000000E+00 0.  1.
        994    1    1    2    0    0  0.99186206270E+01 -0.22650325952E+00  0.31609513543E+01  0.17151636060E+03  0.17120000000E+03 0.  0.
        998    1    1    2    0    0 -0.27639119108E+01 -0.23997777677E+02  0.13752575310E+04  0.13755060193E+04  0.10000000000E+02 0.  1.
</event>
<event>
 5    1  0.1533416E-008  0.3696915E+03  0.7957747E-01  0.3497310E+00
         13   -1    0    0    0    0  0.00000000000E+00  0.00000000000E+00  0.14999999963E+04  0.15000000000E+04  0.10566000000E+00 0.  1.
        994   -1    0    0    0    0 -0.00000000000E+00 -0.00000000000E+00  0.11368683772E-12  0.17120000000E+03  0.17120000000E+03 0.  0.
         13    1    1    2    0    0  0.31479056825E+02 -0.10568793624E+02  0.54139551837E+02  0.63511673371E+02  0.10566000000E+00 0.  1.
        994    1    1    2    0    0 -0.25038057167E+02  0.90002908536E+01  0.11884605356E+02  0.17366229696E+03  0.17120000000E+03 0.  0.
        998    1    1    2    0    0 -0.64409996582E+01  0.15685027709E+01  0.14339758391E+04  0.14340260297E+04  0.10000000000E+02 0.  1.
</event>
<event>
 5    1  0.1533416E-008  0.3765027E+03  0.7957747E-01  0.3466529E+00
         13   -1    0    0    0    0  0.00000000000E+00  0.00000000000E+00  0.14999999963E+04  0.15000000000E+04  0.10566000000E+00 0. -1.
        994   -1    0    0    0    0 -0.00000000000E+00 -0.00000000000E+00  0.11368683772E-12  0.17120000000E+03  0.17120000000E+03 0.  0.
         13    1    1    2    0    0  0.17285781161E+03  0.21535513707E+02  0.98244541795E+03  0.99776881681E+03  0.10566000000E+00 0. -1.
        994    1    1    2    0    0 -0.16080970169E+03 -0.34498366661E+02  0.10367346288E+03  0.25905120028E+03  0.17120000000E+03 0.  0.
        998    1    1    2    0    0 -0.12048109919E+02  0.12962852954E+02  0.41388111545E+03  0.41437998291E+03  0.10000000000E+02 0.  1.
</event>
<event>
 5    1  0.1533416E-008  0.3795053E+03  0.7957747E-01  0.3453315E+00
         13   -1    0    0    0    0  0.00000000000E+00  0.00000000000E+00  0.14999999963E+04  0.15000000000E+04  0.10566000000E+00 0. -1.
        994   -1    0    0    0    0 -0.00000000000E+00 -0.00000000000E+00  0.11368683772E-12  0.17120000000E+03  0.17120000000E+03 0.  0.
         13    1    1    2    0    0  0.21363137738E+02  0.20090478756E+02  0.10237211138E+03  0.10648977107E+03  0.10566000000E+00 0. -1.
        994    1    1    2    0    0  0.99568351308E+01 -0.20554620805E+02  0.61316304424E+01  0.17282554179E+03  0.17120000000E+03 0.  0.
        998    1    1    2    0    0 -0.31319972868E+02  0.46414204901E+00  0.13914962545E+04  0.13918846871E+04  0.10000000000E+02 0. -1.
</event>
<event>
 5    1  0.1533416E-008  0.3833576E+03  0.7957747E-01  0.3436668E+00
         13   -1    0    0    0    0  0.00000000000E+00  0.00000000000E+00  0.14999999963E+04  0.15000000000E+04  0.10566000000E+00 0. -1.
        994   -1    0    0    0    0 -0.00000000000E+00 -0.00000000000E+00  0.11368683772E-12  0.17120000000E+03  0.17120000000E+03 0.  0.
         13    1    1    2    0    0 -0.23522786318E+02 -0.23013575739E+01  0.11538105738E+03  0.11777698115E+03  0.10566000000E+00 0. -1.
        994    1    1    2    0    0  0.13041459266E+02 -0.76646348402E+01  0.32046994754E+01  0.17189687718E+03  0.17120000000E+03 0.  0.
        998    1    1    2    0    0  0.10481327052E+02  0.99659924141E+01  0.13814142394E+04  0.13815261417E+04  0.10000000000E+02 0. -1.
</event>
<event>
 5    1  0.1533416E-008  0.3722029E+03  0.7957747E-01  0.3485827E+00
         13   -1    0    0    0    0  0.00000000000E+00  0.00000000000E+00  0.14999999963E+04  0.15000000000E+04  0.10566000000E+00 0.  1.
        994   -1    0    0    0    0 -0.00000000000E+00 -0.00000000000E+00  0.11368683772E-12  0.17120000000E+03  0.17120000000E+03 0.  0.
         13    1    1    2    0    0 -0.32115337065E+01  0.15404202041E+02  0.46748233387E+01  0.16415496537E+02  0.10566000000E+00 0.  1.
        994    1    1    2    0    0  0.37521500702E+01 -0.15666307730E+02  0.13023228478E+02  0.17244870631E+03  0.17120000000E+03 0.  0.
        998    1    1    2    0    0 -0.54061636367E+00  0.26210568882E+00  0.14823019445E+04  0.14823357972E+04  0.10000000000E+02 0.  1.
</event>
<event>
 5    1  0.1533416E-008  0.3809643E+03  0.7957747E-01  0.3446970E+00
         13   -1    0    0    0    0  0.00000000000E+00  0.00000000000E+00  0.14999999963E+04  0.15000000000E+04  0.10566000000E+00 0. -1.
        994   -1    0    0    0    0 -0.00000000000E+00 -0.00000000000E+00  0.11368683772E-12  0.17120000000E+03  0.17120000000E+03 0.  0.
         13    1    1    2    0    0 -0.65838585927E+01  0.38968106167E+02  0.19471958898E+03  0.19868968265E+03  0.10566000000E+00 0. -1.
        994    1    1    2    0    0  0.10424541668E+02 -0.33360435255E+02  0.77285698589E+01  0.17490214550E+03  0.17120000000E+03 0.  0.
        998    1    1    2    0    0 -0.38406830758E+01 -0.56076709117E+01  0.12975518374E+04  0.12976081719E+04  0.10000000000E+02 0. -1.
</event>
<event>
 5    1  0.1533416E-008  0.3807274E+03  0.7957747E-01  0.3447997E+00
         13   -1    0    0    0    0  0.00000000000E+00  0.00000000000E+00  0.14999999963E+04  0.15000000000E+04  0.10566000000E+00 0. -1.
        994   -1    0    0    0    0 -0.00000000000E+00 -0.00000000000E+00  0.11368683772E-12  0.17120000000E+03  0.17120000000E+03 0.  0.
         13    1    1    2    0    0 -0.12189480059E+02 -0.13884841650E+02  0.43359054608E+02  0.47131635154E+02  0.10566000000E+00 0. -1.
        994    1    1    2    0    0  0.13245396430E+02  0.93108833014E+01  0.46410882393E+01  0.17202648858E+03  0.17120000000E+03 0.  0.
        998    1    1    2    0    0 -0.10559163710E+01  0.45739583487E+01  0.14519998534E+04  0.14520418763E+04  0.10000000000E+02 0. -1.
</event>
<event>
 5    1  0.1533416E-008  0.3832197E+03  0.7957747E-01  0.3437258E+00
         13   -1    0    0    0    0  0.00000000000E+00  0.00000000000E+00  0.14999999963E+04  0.15000000000E+04  0.10566000000E+00 0. -1.
        994   -1    0    0    0    0 -0.00000000000E+00 -0.00000000000E+00  0.11368683772E-12  0.17120000000E+03  0.17120000000E+03 0.  0.
         13    1    1    2    0    0  0.66195732727E+01 -0.13699956944E+02  0.50598350519E+02  0.52836652144E+02  0.10566000000E+00 0. -1.
        994    1    1    2    0    0  0.47534702353E+01 -0.12901355528E+02  0.31421492112E+01  0.17177995679E+03  0.17120000000E+03 0.  0.
        998    1    1    2    0    0 -0.11373043508E+02  0.26601312473E+02  0.14462594965E+04  0.14465833911E+04  0.10000000000E+02 0. -1.
</event>
<event>
 5    1  0.1533416E-008  0.3807906E+03  0.7957747E-01  0.3447723E+00
         13   -1    0    0    0    0  0.00000000000E+00  0.00000000000E+00  0.14999999963E+04  0.15000000000E+04  0.10566000000E+00 0.  1.
        994   -1    0    0    0    0 -0.00000000000E+00 -0.00000000000E+00  0.11368683772E-12  0.17120000000E+03  0.17120000000E+03 0.  0.
         13    1    1    2    0    0  0.16358422147E+02  0.44258106754E+01  0.37185082870E+02  0.40864744308E+02  0.10566000000E+00 0.  1.
        994    1    1    2    0    0 -0.80900563230E+01 -0.92130513090E+01  0.42359757435E+01  0.17169074761E+03  0.17120000000E+03 0.  0.
        998    1    1    2    0    0 -0.82683658237E+01  0.47872406336E+01  0.14585789377E+04  0.14586445081E+04  0.10000000000E+02 0.  1.
</event>
<event>
 5    1  0.1533416E-008  0.3846918E+03  0.7957747E-01  0.3430980E+00
         13   -1    0    0    0    0  0.00000000000E+00  0.00000000000E+00  0.14999999963E+04  0.15000000000E+04  0.10566000000E+00 0.  1.
        994   -1    0    0    0    0 -0.00000000000E+00 -0.00000000000E+00  0.11368683772E-12  0.17120000000E+03  0.17120000000E+03 0.  0.
         13    1    1    2    0    0  0.13794117237E+02 -0.10510046875E+02  0.83442504956E+02  0.85225592125E+02  0.10566000000E+00 0.  1.
        994    1    1    2    0    0 -0.67522003230E+01  0.11835005764E+02  0.23946607161E+01  0.17175806814E+03  0.17120000000E+03 0.  0.
        998    1    1    2    0    0 -0.70419169142E+01 -0.13249588895E+01  0.14141628306E+04  0.14142163397E+04  0.10000000000E+02 0.  1.
</event>
<event>
 5    1  0.1533416E-008  0.3759473E+03  0.7957747E-01  0.3468997E+00
         13   -1    0    0    0    0  0.00000000000E+00  0.00000000000E+00  0.14999999963E+04  0.15000000000E+04  0.10566000000E+00 0.  1.
        994   -1    0    0    0    0 -0.00000000000E+00 -0.00000000000E+00  0.11368683772E-12  0.17120000000E+03  0.17120000000E+03 0.  0.
         13    1    1    2    0    0  0.12281841463E+02 -0.22823516767E+02  0.49177750554E+02  0.55589737011E+02  0.10566000000E+00 0.  1.
        994    1    1    2    0    0 -0.21228102416E+02  0.26301633785E+02  0.10073765155E+02  0.17479510581E+03  0.17120000000E+03 0.  0.
        998    1    1    2    0    0  0.89462609537E+01 -0.34781170173E+01  0.14407484806E+04  0.14408151572E+04  0.10000000000E+02 0.  1.
</event>
<event>
 5    1  0.1533416E-008  0.3708579E+03  0.7957747E-01  0.3491957E+00
         13   -1    0    0    0    0  0.00000000000E+00  0.00000000000E+00  0.14999999963E+04  0.15000000000E+04  0.10566000000E+00 0. -1.
        994   -1    0    0    0    0 -0.00000000000E+00 -0.00000000000E+00  0.11368683772E-12  0.17120000000E+03  0.17120000000E+03 0.  0.
         13    1    1    2    0    0 -0.21429411625E+02  0.12158395083E+02  0.21850519961E+02  0.32931787685E+02  0.10566000000E+00 0. -1.
        994    1    1    2    0    0  0.13524277230E+02 -0.12535335116E+02  0.12586386813E+02  0.17264963896E+03  0.17120000000E+03 0.  0.
        998    1    1    2    0    0  0.79051343946E+01  0.37694003342E+00  0.14655630895E+04  0.14656185734E+04  0.10000000000E+02 0. -1.
</event>
<event>
 5    1  0.1533416E-008  0.3841041E+03  0.7957747E-01  0.3433481E+00
         13   -1    0    0    0    0  0.00000000000E+00  0.00000000000E+00  0.14999999963E+04  0.15000000000E+04  0.10566000000E+00 0.  1.
        994   -1    0    0    0    0 -0.00000000000E+00 -0.00000000000E+00  0.11368683772E-12  0.17120000000E+03  0.17120000000E+03 0.  0.
         13    1    1    2    0    0  0.16212148774E+02  0.13350236086E+02  0.11890180044E+03  0.12074233675E+03  0.10566000000E+00 0.  1.
        994    1    1    2    0    0 -0.11056087502E+02  0.15222365747E+02  0.32438787690E+01  0.17226119772E+03  0.17120000000E+03 0.  0.
        998    1    1    2    0    0 -0.51560612722E+01 -0.28572601833E+02  0.13778543171E+04  0.13781964655E+04  0.10000000000E+02 0.  1.
</event>
<event>
 5    1  0.1981839E-008  0.3855910E+03  0.7957747E-01  0.3427169E+00
         13   -1    0    0    0    0  0.00000000000E+00  0.00000000000E+00  0.14999999963E+04  0.15000000000E+04  0.10566000000E+00 0.  1.
        994   -1    0    0    0    0 -0.00000000000E+00 -0.00000000000E+00  0.11368683772E-12  0.17120000000E+03  0.17120000000E+03 0.  0.
         13    1    1    2    0    0  0.90244897269E+01 -0.72011673787E+01  0.52412670278E+02  0.53669333852E+02  0.10566000000E+00 0.  1.
        994    1    1    2    0    0 -0.24155695379E+01 -0.18949209796E+01  0.13679267163E+01  0.17123299018E+03  0.17120000000E+03 0.  0.
        998    1    1    2    0    0 -0.66089201889E+01  0.90960883583E+01  0.14462193993E+04  0.14462976760E+04  0.10000000000E+02 0.  1.
</event>
<event>
 5    1  0.1533416E-008  0.3814265E+03  0.7957747E-01  0.3444971E+00
         13   -1    0    0    0    0  0.00000000000E+00  0.00000000000E+00  0.14999999963E+04  0.15000000000E+04  0.10566000000E+00 0. -1.
        994   -1    0    0    0    0 -0.00000000000E+00 -0.00000000000E+00  0.11368683772E-12  0.17120000000E+03  0.17120000000E+03 0.  0.
         13    1    1    2    0    0  0.27647903986E+02  0.12999203540E+02  0.11398384456E+03  0.11800726194E+03  0.10566000000E+00 0. -1.
        994    1    1    2    0    0 -0.44971691041E+02 -0.17248271736E+02  0.11172631770E+02  0.17819714805E+03  0.17120000000E+03 0.  0.
        998    1    1    2    0    0  0.17323787055E+02  0.42490681967E+01  0.13748435200E+04  0.13749955900E+04  0.10000000000E+02 0. -1.
</event>
<event>
 5    1  0.1533416E-008  0.3777857E+03  0.7957747E-01  0.3460857E+00
         13   -1    0    0    0    0  0.00000000000E+00  0.00000000000E+00  0.14999999963E+04  0.15000000000E+04  0.10566000000E+00 0.  1.
        994   -1    0    0    0    0 -0.00000000000E+00 -0.00000000000E+00  0.11368683772E-12  0.17120000000E+03  0.17120000000E+03 0.  0.
         13    1    1    2    0    0 -0.57392421516E+02 -0.24362276715E+02  0.31031301469E+03  0.31651475293E+03  0.10566000000E+00 0.  1.
        994    1    1    2    0    0  0.48838757956E+02  0.28343134643E+02  0.16069028136E+02  0.18098677086E+03  0.17120000000E+03 0.  0.
        998    1    1    2    0    0  0.85536635601E+01 -0.39808579276E+01  0.11736179535E+04  0.11736984762E+04  0.10000000000E+02 0.  1.
</event>
<event>
 5    1  0.1533416E-008  0.4009528E+03  0.7957747E-01  0.3364709E+00
         13   -1    0    0    0    0  0.00000000000E+00  0.00000000000E+00  0.14999999963E+04  0.15000000000E+04  0.10566000000E+00 0.  1.
        994   -1    0    0    0    0 -0.00000000000E+00 -0.00000000000E+00  0.11368683772E-12  0.17120000000E+03  0.17120000000E+03 0.  0.
         13    1    1    2    0    0 -0.33761047443E+02 -0.23147258924E+02  0.18806040939E+02  0.45047555538E+02  0.10566000000E+00 0.  1.
        994    1    1    2    0    0  0.30586460335E+01  0.41407341201E+02  0.35153310312E+02  0.17963607223E+03  0.17120000000E+03 0.  0.
        998    1    1    2    0    0  0.30702401409E+02 -0.18260082277E+02  0.14460406450E+04  0.14465163722E+04  0.10000000000E+02 0.  1.
</event>
<event>
 5    1  0.1533416E-008  0.3694065E+03  0.7957747E-01  0.3498623E+00
         13   -1    0    0    0    0  0.00000000000E+00  0.00000000000E+00  0.14999999963E+04  0.15000000000E+04  0.10566000000E+00 0. -1.
        994   -1    0    0    0    0 -0.00000000000E+00 -0.00000000000E+00  0.11368683772E-12  0.17120000000E+03  0.17120000000E+03 0.  0.
         13    1    1    2    0    0  0.69138418636E+01  0.35653598402E+02  0.54901630206E+02  0.65826897630E+02  0.10566000000E+00 0. -1.
        994    1    1    2    0    0 -0.30606178584E+00 -0.44346536234E+02  0.17518214583E+02  0.17771616919E+03  0.17120000000E+03 0.  0.
        998    1    1    2    0    0 -0.66077800777E+01  0.86929378318E+01  0.14275801515E+04  0.14276569332E+04  0.10000000000E+02 0. -1.
</event>
<event>
 5    1  0.1533416E-008  0.3827167E+03  0.7957747E-01  0.3439414E+00
         13   -1    0    0    0    0  0.00000000000E+00  0.00000000000E+00  0.14999999963E+04  0.15000000000E+04  0.10566000000E+00 0.  1.
        994   -1    0    0    0    0 -0.00000000000E+00 -0.00000000000E+00  0.11368683772E-12  0.17120000000E+03  0.17120000000E+03 0.  0.
         13    1    1    2    0    0  0.10384598275E+02 -0.19054295392E+02  0.55131991880E+01  0.22390010798E+02  0.10566000000E+00 0.  1.
        994    1    1    2    0    0  0.12746832165E+02  0.18539727788E+02  0.19682405383E+02  0.17379021928E+03  0.17120000000E+03 0.  0.
        998    1    1    2    0    0 -0.23131430440E+02  0.51456760384E+00  0.14748043917E+04  0.14750197699E+04  0.10000000000E+02 0.  1.
</event>
<event>
 5    1  0.1533416E-008  0.3841151E+03  0.7957747E-01  0.3433434E+00
         13   -1    0    0    0    0  0.00000000000E+00  0.00000000000E+00  0.14999999963E+04  0.15000000000E+04  0.10566000000E+00 0.  1.
        994   -1    0    0    0    0 -0.00000000000E+00 -0.00000000000E+00  0.11368683772E-12  0.17120000000E+03  0.17120000000E+03 0.  0.
         13    1    1    2    0    0  0.34540392149E+01 -0.11547578887E+02  0.35611174773E+02  0.37595796278E+02  0.10566000000E+00 0.  1.
        994    1    1    2    0    0  0.87554666528E+00  0.16439365472E+01  0.20815391648E+01  0.17122278445E+03  0.17120000000E+03 0.  0.
        998    1    1    2    0    0 -0.43295858801E+01  0.99036423400E+01  0.14623072823E+04  0.14623814193E+04  0.10000000000E+02 0.  1.
</event>
<event>
 5    1  0.1533416E-008  0.3846451E+03  0.7957747E-01  0.3431179E+00
         13   -1    0    0    0    0  0.00000000000E+00  0.00000000000E+00  0.14999999963E+04  0.15000000000E+04  0.10566000000E+00 0. -1.
        994   -1    0    0    0    0 -0.00000000000E+00 -0.00000000000E+00  0.11368683772E-12  0.17120000000E+03  0.17120000000E+03 0.  0.
         13    1    1    2    0    0 -0.10331962215E+02 -0.12175357000E+02  0.68588293235E+02  0.70422680254E+02  0.10566000000E+00 0. -1.
        994    1    1    2    0    0  0.84282097599E+01  0.12141867653E+02  0.25260498264E+01  0.17185540608E+03  0.17120000000E+03 0.  0.
        998    1    1    2    0    0  0.19037524548E+01  0.33489346973E-01  0.14288856532E+04  0.14289219137E+04  0.10000000000E+02 0. -1.
</event>
<event>
 5    1  0.1533416E-008  0.3710614E+03  0.7957747E-01  0.3491027E+00
         13   -1    0    0    0    0  0.00000000000E+00  0.00000000000E+00  0.14999999963E+04  0.15000000000E+04  0.10566000000E+00 0.  1.
        994   -1    0    0    0    0 -0.00000000000E+00 -0.00000000000E+00  0.11368683772E-12  0.17120000000E+03  0.17120000000E+03 0.  0.
         13    1    1    2    0    0 -0.98744905420E+02  0.95856669262E+02  0.46637767551E+03  0.48625837244E+03  0.10566000000E+00 0.  1.
        994    1    1    2    0    0  0.73770292383E+02 -0.14898362872E+03  0.11590682698E+03  0.26529608027E+03  0.17120000000E+03 0.  0.
        998    1    1    2    0    0  0.24974613037E+02  0.53126959455E+02  0.91771549379E+03  0.91964554730E+03  0.10000000000E+02 0.  1.
</event>
<event>
 5    1  0.1533416E-008  0.3838161E+03  0.7957747E-01  0.3434709E+00
         13   -1    0    0    0    0  0.00000000000E+00  0.00000000000E+00  0.14999999963E+04  0.15000000000E+04  0.10566000000E+00 0.  1.
        994   -1    0    0    0    0 -0.00000000000E+00 -0.00000000000E+00  0.11368683772E-12  0.17120000000E+03  0.17120000000E+03 0.  0.
         13    1    1    2    0    0 -0.14596026877E+02  0.18999045621E+02  0.12184239931E+03  0.12417563839E+03  0.10566000000E+00 0.  1.
        994    1    1    2    0    0  0.23630936367E+02 -0.10087270373E+02  0.44015330358E+01  0.17317328798E+03  0.17120000000E+03 0.  0.
        998    1    1    2    0    0 -0.90349094898E+01 -0.89117752480E+01  0.13737560639E+04  0.13738510736E+04  0.10000000000E+02 0.  1.
</event>
<event>
 5    1  0.1533416E-008  0.3780062E+03  0.7957747E-01  0.3459886E+00
         13   -1    0    0    0    0  0.00000000000E+00  0.00000000000E+00  0.14999999963E+04  0.15000000000E+04  0.10566000000E+00 0. -1.
        994   -1    0    0    0    0 -0.00000000000E+00 -0.00000000000E+00  0.11368683772E-12  0.17120000000E+03  0.17120000000E+03 0.  0.
         13    1    1    2    0    0 -0.91220851340E+01  0.28138603335E+02  0.86707154426E+02  0.91614055840E+02  0.10566000000E+00 0. -1.
        994    1    1    2    0    0  0.22326528014E+01 -0.86926480171E+01  0.54141033888E+01  0.17152055091E+03  0.17120000000E+03 0.  0.
        998    1    1    2    0    0  0.68894323325E+01 -0.19445955318E+02  0.14078787385E+04  0.14080653933E+04  0.10000000000E+02 0. -1.
</event>
<event>
 5    1  0.1533416E-008  0.3787120E+03  0.7957747E-01  0.3456786E+00
         13   -1    0    0    0    0  0.00000000000E+00  0.00000000000E+00  0.14999999963E+04  0.15000000000E+04  0.10566000000E+00 0. -1.
        994   -1    0    0    0    0 -0.00000000000E+00 -0.00000000000E+00  0.11368683772E-12  0.17120000000E+03  0.17120000000E+03 0.  0.
         13    1    1    2    0    0 -0.17851342845E+02  0.27464766100E+02  0.30779107093E+02  0.44948286016E+02  0.10566000000E+00 0. -1.
        994    1    1    2    0    0 -0.87343757753E+01  0.12509304698E+02  0.16461559718E+02  0.17266497900E+03  0.17120000000E+03 0.  0.
        998    1    1    2    0    0  0.26585718621E+02 -0.39974070798E+02  0.14527593295E+04  0.14535867350E+04  0.10000000000E+02 0. -1.
</event>
<event>
 5    1  0.1533416E-008  0.3836455E+03  0.7957747E-01  0.3435437E+00
         13   -1    0    0    0    0  0.00000000000E+00  0.00000000000E+00  0.14999999963E+04  0.15000000000E+04  0.10566000000E+00 0. -1.
        994   -1    0    0    0    0 -0.00000000000E+00 -0.00000000000E+00  0.11368683772E-12  0.17120000000E+03  0.17120000000E+03 0.  0.
         13    1    1    2    0    0  0.87546502713E+01  0.96694082406E+01  0.36022055203E+02  0.38311107817E+02  0.10566000000E+00 0. -1.
        994    1    1    2    0    0 -0.72748854088E+01 -0.75090406973E+01  0.26652655428E+01  0.17153965515E+03  0.17120000000E+03 0.  0.
        998    1    1    2    0    0 -0.14797648625E+01 -0.21603675433E+01  0.14613126755E+04  0.14613492370E+04  0.10000000000E+02 0. -1.
</event>
<event>
 5    1  0.1533416E-008  0.3850904E+03  0.7957747E-01  0.3429289E+00
         13   -1    0    0    0    0  0.00000000000E+00  0.00000000000E+00  0.14999999963E+04  0.15000000000E+04  0.10566000000E+00 0.  1.
        994   -1    0    0    0    0 -0.00000000000E+00 -0.00000000000E+00  0.11368683772E-12  0.17120000000E+03  0.17120000000E+03 0.  0.
         13    1    1    2    0    0 -0.24128807052E+01 -0.15635038930E+02  0.72665647343E+02  0.74367895650E+02  0.10566000000E+00 0.  1.
        994    1    1    2    0    0  0.34473161660E+00  0.23151559386E+02  0.33498268860E+01  0.17279113080E+03  0.17120000000E+03 0.  0.
        998    1    1    2    0    0  0.20681490887E+01 -0.75165204566E+01  0.14239845220E+04  0.14240409736E+04  0.10000000000E+02 0.  1.
</event>
<event>
 5    1  0.1533416E-008  0.3836224E+03  0.7957747E-01  0.3435536E+00
         13   -1    0    0    0    0  0.00000000000E+00  0.00000000000E+00  0.14999999963E+04  0.15000000000E+04  0.10566000000E+00 0.  1.
        994   -1    0    0    0    0 -0.00000000000E+00 -0.00000000000E+00  0.11368683772E-12  0.17120000000E+03  0.17120000000E+03 0.  0.
         13    1    1    2    0    0  0.88459122313E+01 -0.49975437810E+01  0.20809895390E+02  0.23157903990E+02  0.10566000000E+00 0.  1.
        994    1    1    2    0    0 -0.15319196020E+02  0.74113451309E+01  0.32729117243E+01  0.17207486090E+03  0.17120000000E+03 0.  0.
        998    1    1    2    0    0  0.64732837889E+01 -0.24138013500E+01  0.14759171892E+04  0.14759672351E+04  0.10000000000E+02 0.  1.
</event>
<event>
 5    1  0.1533416E-008  0.3875540E+03  0.7957747E-01  0.3418912E+00
         13   -1    0    0    0    0  0.00000000000E+00  0.00000000000E+00  0.14999999963E+04  0.15000000000E+04  0.10566000000E+00 0. -1.
        994   -1    0    0    0    0 -0.00000000000E+00 -0.00000000000E+00  0.11368683772E-12  0.17120000000E+03  0.17120000000E+03 0.  0.
         13    1    1    2    0    0  0.38157377788E+02  0.41247739110E+01  0.27358887484E+02  0.47132994048E+02  0.10566000000E+00 0. -1.
        994    1    1    2    0    0 -0.34615208278E+02 -0.13955177598E+02  0.25749249640E+02  0.17710286131E+03  0.17120000000E+03 0.  0.
        998    1    1    2    0    0 -0.35421695103E+01  0.98304036871E+01  0.14468918592E+04  0.14469641446E+04  0.10000000000E+02 0. -1.
</event>
<event>
 5    1  0.1533416E-008  0.3834112E+03  0.7957747E-01  0.3436439E+00
         13   -1    0    0    0    0  0.00000000000E+00  0.00000000000E+00  0.14999999963E+04  0.15000000000E+04  0.10566000000E+00 0.  1.
        994   -1    0    0    0    0 -0.00000000000E+00 -0.00000000000E+00  0.11368683772E-12  0.17120000000E+03  0.17120000000E+03 0.  0.
         13    1    1    2    0    0 -0.14127131413E+02 -0.25931435243E+02  0.16795263014E+03  0.17052891928E+03  0.10566000000E+00 0.  1.
        994    1    1    2    0    0  0.12596438651E+02  0.21934751842E+02  0.45388564092E+01  0.17311800837E+03  0.17120000000E+03 0.  0.
        998    1    1    2    0    0  0.15306927621E+01  0.39966834014E+01  0.13275085097E+04  0.13275530723E+04  0.10000000000E+02 0.  0.
</event>
<event>
 5    1  0.1533416E-008  0.3773106E+03  0.7957747E-01  0.3462953E+00
         13   -1    0    0    0    0  0.00000000000E+00  0.00000000000E+00  0.14999999963E+04  0.15000000000E+04  0.10566000000E+00 0. -1.
        994   -1    0    0    0    0 -0.00000000000E+00 -0.00000000000E+00  0.11368683772E-12  0.17120000000E+03  0.17120000000E+03 0.  0.
         13    1    1    2    0    0 -0.30154363953E+02 -0.21414807160E+02  0.11354750186E+03  0.11941911896E+03  0.10566000000E+00 0. -1.
        994    1    1    2    0    0  0.31630941357E+02  0.21028195545E+02  0.10378528270E+02  0.17566973361E+03  0.17120000000E+03 0.  0.
        998    1    1    2    0    0 -0.14765774045E+01  0.38661161512E+00  0.13760739662E+04  0.13761111474E+04  0.10000000000E+02 0. -1.
</event>
<event>
 5    1  0.1533416E-008  0.3856713E+03  0.7957747E-01  0.3426830E+00
         13   -1    0    0    0    0  0.00000000000E+00  0.00000000000E+00  0.14999999963E+04  0.15000000000E+04  0.10566000000E+00 0. -1.
        994   -1    0    0    0    0 -0.00000000000E+00 -0.00000000000E+00  0.11368683772E-12  0.17120000000E+03  0.17120000000E+03 0.  0.
         13    1    1    2    0    0  0.86628470357E+01 -0.74827466378E+01  0.51879524263E+02  0.53127512814E+02  0.10566000000E+00 0. -1.
        994    1    1    2    0    0  0.17451373867E+01  0.90479742342E+01  0.15758897685E+01  0.17145505175E+03  0.17120000000E+03 0.  0.
        998    1    1    2    0    0 -0.10407984422E+02 -0.15652275964E+01  0.14465445822E+04  0.14466174354E+04  0.10000000000E+02 0. -1.
</event>
<event>
 5    1  0.1533416E-008  0.3754302E+03  0.7957747E-01  0.3471301E+00
         13   -1    0    0    0    0  0.00000000000E+00  0.00000000000E+00  0.14999999963E+04  0.15000000000E+04  0.10566000000E+00 0.  1.
        994   -1    0    0    0    0 -0.00000000000E+00 -0.00000000000E+00  0.11368683772E-12  0.17120000000E+03  0.17120000000E+03 0.  0.
         13    1    1    2    0    0  0.50098213128E+02  0.96039283564E+02  0.54831058545E+03  0.55890776003E+03  0.10566000000E+00 0.  1.
        994    1    1    2    0    0 -0.58369779178E+02 -0.93665819415E+02  0.48993189361E+02  0.20949961683E+03  0.17120000000E+03 0.  0.
        998    1    1    2    0    0  0.82715660497E+01 -0.23734641483E+01  0.90269622147E+03  0.90279262314E+03  0.10000000000E+02 0.  1.
</event>
<event>
 5    1  0.1533416E-008  0.3817022E+03  0.7957747E-01  0.3443780E+00
         13   -1    0    0    0    0  0.00000000000E+00  0.00000000000E+00  0.14999999963E+04  0.15000000000E+04  0.10566000000E+00 0.  1.
        994   -1    0    0    0    0 -0.00000000000E+00 -0.00000000000E+00  0.11368683772E-12  0.17120000000E+03  0.17120000000E+03 0.  0.
         13    1    1    2    0    0 -0.12784327527E+02 -0.76976288581E+01  0.31214687678E+02  0.34598560826E+02  0.10566000000E+00 0.  1.
        994    1    1    2    0    0  0.23255586542E+02  0.88137960685E+01  0.53351191069E+01  0.17307919806E+03  0.17120000000E+03 0.  0.
        998    1    1    2    0    0 -0.10471259015E+02 -0.11161672104E+01  0.14634501895E+04  0.14635222411E+04  0.10000000000E+02 0.  1.
</event>
<event>
 5    1  0.1533416E-008  0.3818916E+03  0.7957747E-01  0.3442963E+00
         13   -1    0    0    0    0  0.00000000000E+00  0.00000000000E+00  0.14999999963E+04  0.15000000000E+04  0.10566000000E+00 0. -1.
        994   -1    0    0    0    0 -0.00000000000E+00 -0.00000000000E+00  0.11368683772E-12  0.17120000000E+03  0.17120000000E+03 0.  0.
         13    1    1    2    0    0  0.11467387450E+02 -0.58499795531E+01  0.25936920537E+02  0.28956143505E+02  0.10566000000E+00 0. -1.
        994    1    1    2    0    0 -0.56970063167E+01 -0.21793971125E+02  0.48688811747E+01  0.17274425913E+03  0.17120000000E+03 0.  0.
        998    1    1    2    0    0 -0.57703811335E+01  0.27643950679E+02  0.14691941946E+04  0.14694995974E+04  0.10000000000E+02 0. -1.
</event>
<event>
 5    1  0.1533416E-008  0.3845598E+03  0.7957747E-01  0.3431541E+00
         13   -1    0    0    0    0  0.00000000000E+00  0.00000000000E+00  0.14999999963E+04  0.15000000000E+04  0.10566000000E+00 0. -1.
        994   -1    0    0    0    0 -0.00000000000E+00 -0.00000000000E+00  0.11368683772E-12  0.17120000000E+03  0.17120000000E+03 0.  0.
         13    1    1    2    0    0  0.31063873597E+01 -0.17228981619E+02  0.93080861952E+02  0.94712963610E+02  0.10566000000E+00 0. -1.
        994    1    1    2    0    0  0.24205632784E+01 -0.45872779010E+01  0.19374281151E+01  0.17128950894E+03  0.17120000000E+03 0.  0.
        998    1    1    2    0    0 -0.55269506381E+01  0.21816259520E+02  0.14049817062E+04  0.14051975275E+04  0.10000000000E+02 0. -1.
</event>
<event>
 5    1  0.1533416E-008  0.3827923E+03  0.7957747E-01  0.3439089E+00
         13   -1    0    0    0    0  0.00000000000E+00  0.00000000000E+00  0.14999999963E+04  0.15000000000E+04  0.10566000000E+00 0. -1.
        994   -1    0    0    0    0 -0.00000000000E+00 -0.00000000000E+00  0.11368683772E-12  0.17120000000E+03  0.17120000000E+03 0.  0.
         13    1    1    2    0    0 -0.27772191686E+01 -0.24796092442E+02  0.10966511062E+03  0.11246780338E+03  0.10566000000E+00 0. -1.
        994    1    1    2    0    0  0.38156115766E+01  0.19895997465E+02  0.40907946145E+01  0.17244298828E+03  0.17120000000E+03 0.  0.
        998    1    1    2    0    0 -0.10383924080E+01  0.49000949778E+01  0.13862440910E+04  0.13862892083E+04  0.10000000000E+02 0.  0.
</event>
<event>
 5    1  0.1533416E-008  0.3842009E+03  0.7957747E-01  0.3433069E+00
         13   -1    0    0    0    0  0.00000000000E+00  0.00000000000E+00  0.14999999963E+04  0.15000000000E+04  0.10566000000E+00 0.  1.
        994   -1    0    0    0    0 -0.00000000000E+00 -0.00000000000E+00  0.11368683772E-12  0.17120000000E+03  0.17120000000E+03 0.  0.
         13    1    1    2    0    0 -0.97992552685E+01  0.19557867523E+02  0.12050891940E+03  0.12247835076E+03  0.10566000000E+00 0.  1.
        994    1    1    2    0    0  0.36244727672E+01 -0.99350400457E+01  0.23962653173E+01  0.17154306722E+03  0.17120000000E+03 0.  0.
        998    1    1    2    0    0  0.61747825013E+01 -0.96228274777E+01  0.13770948116E+04  0.13771785820E+04  0.10000000000E+02 0.  1.
</event>
<event>
 5    1  0.1533416E-008  0.3842496E+03  0.7957747E-01  0.3432861E+00
         13   -1    0    0    0    0  0.00000000000E+00  0.00000000000E+00  0.14999999963E+04  0.15000000000E+04  0.10566000000E+00 0.  1.
        994   -1    0    0    0    0 -0.00000000000E+00 -0.00000000000E+00  0.11368683772E-12  0.17120000000E+03  0.17120000000E+03 0.  0.
         13    1    1    2    0    0  0.40768746004E+02 -0.90961683612E+02  0.29150090448E+03  0.30807289237E+03  0.10566000000E+00 0.  1.
        994    1    1    2    0    0 -0.20234572238E+02  0.32686759862E+02  0.24140728978E+02  0.17711599865E+03  0.17120000000E+03 0.  0.
        998    1    1    2    0    0 -0.20534173766E+02  0.58274923750E+02  0.11843583628E+04  0.11860111090E+04  0.10000000000E+02 0.  0.
</event>
<event>
 5    1  0.1533416E-008  0.3836929E+03  0.7957747E-01  0.3435235E+00
         13   -1    0    0    0    0  0.00000000000E+00  0.00000000000E+00  0.14999999963E+04  0.15000000000E+04  0.10566000000E+00 0.  1.
        994   -1    0    0    0    0 -0.00000000000E+00 -0.00000000000E+00  0.11368683772E-12  0.17120000000E+03  0.17120000000E+03 0.  0.
         13    1    1    2    0    0  0.11897315895E+02  0.32086245504E+01  0.34819075462E+02  0.36935356734E+02  0.10566000000E+00 0.  1.
        994    1    1    2    0    0  0.58129886564E+01  0.70109520176E+01  0.25544803419E+01  0.17146110246E+03  0.17120000000E+03 0.  0.
        998    1    1    2    0    0 -0.17710304552E+02 -0.10219576568E+02  0.14626264405E+04  0.14628035408E+04  0.10000000000E+02 0.  1.
</event>
<event>
 5    1  0.1533416E-008  0.3714754E+03  0.7957747E-01  0.3489138E+00
         13   -1    0    0    0    0  0.00000000000E+00  0.00000000000E+00  0.14999999963E+04  0.15000000000E+04  0.10566000000E+00 0. -1.
        994   -1    0    0    0    0 -0.00000000000E+00 -0.00000000000E+00  0.11368683772E-12  0.17120000000E+03  0.17120000000E+03 0.  0.
         13    1    1    2    0    0  0.37179954645E+02  0.58606047318E+02  0.30414820157E+03  0.31196659675E+03  0.10566000000E+00 0. -1.
        994    1    1    2    0    0 -0.51812054739E+01 -0.30482350117E+02  0.11795870380E+02  0.17436915185E+03  0.17120000000E+03 0.  0.
        998    1    1    2    0    0 -0.31998749171E+02 -0.28123697201E+02  0.11840559243E+04  0.11848642514E+04  0.10000000000E+02 0. -1.
</event>
<event>
 5    1  0.1533416E-008  0.3833164E+03  0.7957747E-01  0.3436844E+00
         13   -1    0    0    0    0  0.00000000000E+00  0.00000000000E+00  0.14999999963E+04  0.15000000000E+04  0.10566000000E+00 0.  1.
        994   -1    0    0    0    0 -0.00000000000E+00 -0.00000000000E+00  0.11368683772E-12  0.17120000000E+03  0.17120000000E+03 0.  0.
         13    1    1    2    0    0 -0.17964458674E+02 -0.75026958413E+01  0.87180637085E+02  0.89327973597E+02  0.10566000000E+00 0.  1.
        994    1    1    2    0    0 -0.58914192148E+01 -0.10522031250E+02  0.29493293856E+01  0.17164952813E+03  0.17120000000E+03 0.  0.
        998    1    1    2    0    0  0.23855877889E+02  0.18024727091E+02  0.14098700298E+04  0.14102224983E+04  0.10000000000E+02 0.  1.
</event>
<event>
 5    1  0.1533416E-008  0.3821956E+03  0.7957747E-01  0.3441654E+00
         13   -1    0    0    0    0  0.00000000000E+00  0.00000000000E+00  0.14999999963E+04  0.15000000000E+04  0.10566000000E+00 0. -1.
        994   -1    0    0    0    0 -0.00000000000E+00 -0.00000000000E+00  0.11368683772E-12  0.17120000000E+03  0.17120000000E+03 0.  0.
         13    1    1    2    0    0 -0.92237814753E+01 -0.17926955853E+02  0.64521857286E+02  0.67598336685E+02  0.10566000000E+00 0. -1.
        994    1    1    2    0    0  0.17201888416E+02  0.11522220325E+02  0.44528685725E+01  0.17250488273E+03  0.17120000000E+03 0.  0.
        998    1    1    2    0    0 -0.79781069410E+01  0.64047355282E+01  0.14310252704E+04  0.14310967806E+04  0.10000000000E+02 0. -1.
</event>
<event>
 5    1  0.1533416E-008  0.4106054E+03  0.7957747E-01  0.3327842E+00
         13   -1    0    0    0    0  0.00000000000E+00  0.00000000000E+00  0.14999999963E+04  0.15000000000E+04  0.10566000000E+00 0.  1.
        994   -1    0    0    0    0 -0.00000000000E+00 -0.00000000000E+00  0.11368683772E-12  0.17120000000E+03  0.17120000000E+03 0.  0.
         13    1    1    2    0    0  0.63098997517E+02  0.40593652331E+02  0.98796100781E+02  0.12405647420E+03  0.10566000000E+00 0.  1.
        994    1    1    2    0    0  0.10739844745E+03 -0.31262107765E+02  0.87640332039E+02  0.22249048001E+03  0.17120000000E+03 0.  0.
        998    1    1    2    0    0 -0.17049744497E+03 -0.93315445658E+01  0.13135635635E+04  0.13246530458E+04  0.10000000000E+02 0.  1.
</event>
<event>
 5    1  0.1533416E-008  0.3762216E+03  0.7957747E-01  0.3467777E+00
         13   -1    0    0    0    0  0.00000000000E+00  0.00000000000E+00  0.14999999963E+04  0.15000000000E+04  0.10566000000E+00 0.  1.
        994   -1    0    0    0    0 -0.00000000000E+00 -0.00000000000E+00  0.11368683772E-12  0.17120000000E+03  0.17120000000E+03 0.  0.
         13    1    1    2    0    0  0.15739393265E+02 -0.15437973775E+02  0.37260805134E+02  0.43294783726E+02  0.10566000000E+00 0.  1.
        994    1    1    2    0    0 -0.15165571725E+02  0.11710239357E+02  0.72965423907E+01  0.17242332732E+03  0.17120000000E+03 0.  0.
        998    1    1    2    0    0 -0.57382153941E+00  0.37277344187E+01  0.14554426488E+04  0.14554818890E+04  0.10000000000E+02 0.  1.
</event>
<event>
 5    1  0.1533416E-008  0.3769969E+03  0.7957747E-01  0.3464340E+00
         13   -1    0    0    0    0  0.00000000000E+00  0.00000000000E+00  0.14999999963E+04  0.15000000000E+04  0.10566000000E+00 0. -1.
        994   -1    0    0    0    0 -0.00000000000E+00 -0.00000000000E+00  0.11368683772E-12  0.17120000000E+03  0.17120000000E+03 0.  0.
         13    1    1    2    0    0 -0.18719993709E+02  0.54793695014E+00  0.28480883140E+02  0.34086804894E+02  0.10566000000E+00 0. -1.
        994    1    1    2    0    0  0.15276578892E+02 -0.50285219758E-01  0.64452149450E+01  0.17200103833E+03  0.17120000000E+03 0.  0.
        998    1    1    2    0    0  0.34434148175E+01 -0.49765173038E+00  0.14650738982E+04  0.14651121568E+04  0.10000000000E+02 0. -1.
</event>
<event>
 5    1  0.1533416E-008  0.3760085E+03  0.7957747E-01  0.3468725E+00
         13   -1    0    0    0    0  0.00000000000E+00  0.00000000000E+00  0.14999999963E+04  0.15000000000E+04  0.10566000000E+00 0.  1.
        994   -1    0    0    0    0 -0.00000000000E+00 -0.00000000000E+00  0.11368683772E-12  0.17120000000E+03  0.17120000000E+03 0.  0.
         13    1    1    2    0    0 -0.66151983970E+02  0.24048626769E+02  0.16708399399E+03  0.18130497413E+03  0.10566000000E+00 0.  1.
        994    1    1    2    0    0  0.34638164277E+02 -0.47881291472E+02  0.26731649480E+02  0.18307496165E+03  0.17120000000E+03 0.  0.
        998    1    1    2    0    0  0.31513819693E+02  0.23832664704E+02  0.13061843528E+04  0.13068200642E+04  0.10000000000E+02 0.  1.
</event>
<event>
 5    1  0.1533416E-008  0.3838527E+03  0.7957747E-01  0.3434552E+00
         13   -1    0    0    0    0  0.00000000000E+00  0.00000000000E+00  0.14999999963E+04  0.15000000000E+04  0.10566000000E+00 0.  1.
        994   -1    0    0    0    0 -0.00000000000E+00 -0.00000000000E+00  0.11368683772E-12  0.17120000000E+03  0.17120000000E+03 0.  0.
         13    1    1    2    0    0 -0.10207509290E+02 -0.74619927005E+01  0.35305278784E+02  0.37501312711E+02  0.10566000000E+00 0.  1.
        994    1    1    2    0    0  0.39415077828E+01  0.14012524335E+02  0.29005334085E+01  0.17184219335E+03  0.17120000000E+03 0.  0.
        998    1    1    2    0    0  0.62660015076E+01 -0.65505316345E+01  0.14617941841E+04  0.14618564939E+04  0.10000000000E+02 0.  1.
</event>
<event>
 5    1  0.1533416E-008  0.3804631E+03  0.7957747E-01  0.3449144E+00
         13   -1    0    0    0    0  0.00000000000E+00  0.00000000000E+00  0.14999999963E+04  0.15000000000E+04  0.10566000000E+00 0.  1.
        994   -1    0    0    0    0 -0.00000000000E+00 -0.00000000000E+00  0.11368683772E-12  0.17120000000E+03  0.17120000000E+03 0.  0.
         13    1    1    2    0    0 -0.41414243334E+01 -0.13763951428E+02  0.24590853753E+02  0.28483662102E+02  0.10566000000E+00 0.  1.
        994    1    1    2    0    0  0.52062075909E+01  0.13547960743E+02  0.46029670676E+01  0.17187576660E+03  0.17120000000E+03 0.  0.
        998    1    1    2    0    0 -0.10647832575E+01  0.21599068508E+00  0.14708061755E+04  0.14708405713E+04  0.10000000000E+02 0.  1.
</event>
<event>
 5    1  0.1533416E-008  0.3844517E+03  0.7957747E-01  0.3432001E+00
         13   -1    0    0    0    0  0.00000000000E+00  0.00000000000E+00  0.14999999963E+04  0.15000000000E+04  0.10566000000E+00 0. -1.
        994   -1    0    0    0    0 -0.00000000000E+00 -0.00000000000E+00  0.11368683772E-12  0.17120000000E+03  0.17120000000E+03 0.  0.
         13    1    1    2    0    0  0.10064351621E+02  0.44250121213E+01  0.32167177301E+02  0.33994269596E+02  0.10566000000E+00 0. -1.
        994    1    1    2    0    0 -0.29569532473E+00 -0.27714612293E+01  0.19282206201E+01  0.17123354364E+03  0.17120000000E+03 0.  0.
        998    1    1    2    0    0 -0.97686562967E+01 -0.16535508921E+01  0.14659045984E+04  0.14659721868E+04  0.10000000000E+02 0. -1.
</event>
<event>
 5    1  0.1533416E-008  0.3819981E+03  0.7957747E-01  0.3442504E+00
         13   -1    0    0    0    0  0.00000000000E+00  0.00000000000E+00  0.14999999963E+04  0.15000000000E+04  0.10566000000E+00 0.  1.
        994   -1    0    0    0    0 -0.00000000000E+00 -0.00000000000E+00  0.11368683772E-12  0.17120000000E+03  0.17120000000E+03 0.  0.
         13    1    1    2    0    0  0.28379241119E+02 -0.20818558119E+02  0.17631714876E+03  0.17979583365E+03  0.10566000000E+00 0.  1.
        994    1    1    2    0    0 -0.33395590937E+02  0.13809223062E+02  0.74771487671E+01  0.17513225828E+03  0.17120000000E+03 0.  0.
        998    1    1    2    0    0  0.50163498175E+01  0.70093350566E+01  0.13162056988E+04  0.13162719081E+04  0.10000000000E+02 0.  1.
</event>
<event>
 5    1  0.1533416E-008  0.3789676E+03  0.7957747E-01  0.3455666E+00
         13   -1    0    0    0    0  0.00000000000E+00  0.00000000000E+00  0.14999999963E+04  0.15000000000E+04  0.10566000000E+00 0. -1.
        994   -1    0    0    0    0 -0.00000000000E+00 -0.00000000000E+00  0.11368683772E-12  0.17120000000E+03  0.17120000000E+03 0.  0.
         13    1    1    2    0    0  0.25149464239E+02  0.12955809346E+02  0.82007699903E+02  0.86750346136E+02  0.10566000000E+00 0. -1.
        994    1    1    2    0    0 -0.15727672584E+02 -0.21417898460E+02  0.70272628150E+01  0.17339235416E+03  0.17120000000E+03 0.  0.
        998    1    1    2    0    0 -0.94217916545E+01  0.84620891137E+01  0.14109650336E+04  0.14110572997E+04  0.10000000000E+02 0. -1.
</event>
<event>
 5    1  0.1533416E-008  0.3848696E+03  0.7957747E-01  0.3430226E+00
         13   -1    0    0    0    0  0.00000000000E+00  0.00000000000E+00  0.14999999963E+04  0.15000000000E+04  0.10566000000E+00 0. -1.
        994   -1    0    0    0    0 -0.00000000000E+00 -0.00000000000E+00  0.11368683772E-12  0.17120000000E+03  0.17120000000E+03 0.  0.
         13    1    1    2    0    0  0.65634421214E+00 -0.18535143250E+02  0.11198997870E+03  0.11351541224E+03  0.10566000000E+00 0. -1.
        994    1    1    2    0    0  0.25155168647E+01  0.27778303149E-01  0.17157334104E+01  0.17122707828E+03  0.17120000000E+03 0.  0.
        998    1    1    2    0    0 -0.31718610769E+01  0.18507364947E+02  0.13862942842E+04  0.13864575095E+04  0.10000000000E+02 0. -1.
</event>
<event>
 5    1  0.1533416E-008  0.4113398E+03  0.7957747E-01  0.3325107E+00
         13   -1    0    0    0    0  0.00000000000E+00  0.00000000000E+00  0.14999999963E+04  0.15000000000E+04  0.10566000000E+00 0.  1.
        994   -1    0    0    0    0 -0.00000000000E+00 -0.00000000000E+00  0.11368683772E-12  0.17120000000E+03  0.17120000000E+03 0.  0.
         13    1    1    2    0    0 -0.10471347311E+03 -0.12428420724E+02  0.14218677121E+03  0.17702108960E+03  0.10566000000E+00 0.  1.
        994    1    1    2    0    0  0.94533499779E+02 -0.17012872319E+02  0.73753224734E+02  0.20970216633E+03  0.17120000000E+03 0.  0.
        998    1    1    2    0    0  0.10179973331E+02  0.29441293043E+02  0.12840600003E+04  0.12844767441E+04  0.10000000000E+02 0.  1.
</event>
<event>
 5    1  0.1533416E-008  0.3724145E+03  0.7957747E-01  0.3484867E+00
         13   -1    0    0    0    0  0.00000000000E+00  0.00000000000E+00  0.14999999963E+04  0.15000000000E+04  0.10566000000E+00 0. -1.
        994   -1    0    0    0    0 -0.00000000000E+00 -0.00000000000E+00  0.11368683772E-12  0.17120000000E+03  0.17120000000E+03 0.  0.
         13    1    1    2    0    0 -0.53899678057E+01 -0.16032609432E+02  0.14956917999E+02  0.22579124833E+02  0.10566000000E+00 0. -1.
        994    1    1    2    0    0 -0.25048421336E+01 -0.58560263939E+01  0.81516080308E+01  0.17151226193E+03  0.17120000000E+03 0.  0.
        998    1    1    2    0    0  0.78948099392E+01  0.21888635826E+02  0.14768914702E+04  0.14771086132E+04  0.10000000000E+02 0. -1.
</event>
<event>
 5    1  0.1533416E-008  0.3773988E+03  0.7957747E-01  0.3462564E+00
         13   -1    0    0    0    0  0.00000000000E+00  0.00000000000E+00  0.14999999963E+04  0.15000000000E+04  0.10566000000E+00 0.  1.
        994   -1    0    0    0    0 -0.00000000000E+00 -0.00000000000E+00  0.11368683772E-12  0.17120000000E+03  0.17120000000E+03 0.  0.
         13    1    1    2    0    0  0.37080083499E+01 -0.14334723250E+02  0.17742882305E+02  0.23109622522E+02  0.10566000000E+00 0.  1.
        994    1    1    2    0    0 -0.59948210951E+01  0.96463417192E+01  0.58870957509E+01  0.17167727772E+03  0.17120000000E+03 0.  0.
        998    1    1    2    0    0  0.22868127452E+01  0.46883815310E+01  0.14763700182E+04  0.14764130998E+04  0.10000000000E+02 0.  1.
</event>
<event>
 5    1  0.1533416E-008  0.3799268E+03  0.7957747E-01  0.3451477E+00
         13   -1    0    0    0    0  0.00000000000E+00  0.00000000000E+00  0.14999999963E+04  0.15000000000E+04  0.10566000000E+00 0.  1.
        994   -1    0    0    0    0 -0.00000000000E+00 -0.00000000000E+00  0.11368683772E-12  0.17120000000E+03  0.17120000000E+03 0.  0.
         13    1    1    2    0    0 -0.10189546140E+02  0.67098220341E+01  0.16105301226E+02  0.20204961121E+02  0.10566000000E+00 0.  1.
        994    1    1    2    0    0  0.58043063952E+01 -0.53270131231E+01  0.43776715484E+01  0.17143707607E+03  0.17120000000E+03 0.  0.
        998    1    1    2    0    0  0.43852397452E+01 -0.13828089111E+01  0.14795170235E+04  0.14795579628E+04  0.10000000000E+02 0.  1.
</event>
<event>
 5    1  0.1533416E-008  0.3846598E+03  0.7957747E-01  0.3431116E+00
         13   -1    0    0    0    0  0.00000000000E+00  0.00000000000E+00  0.14999999963E+04  0.15000000000E+04  0.10566000000E+00 0. -1.
        994   -1    0    0    0    0 -0.00000000000E+00 -0.00000000000E+00  0.11368683772E-12  0.17120000000E+03  0.17120000000E+03 0.  0.
         13    1    1    2    0    0 -0.51592489771E+01  0.15079158956E+02  0.67930538258E+02  0.69775125059E+02  0.10566000000E+00 0. -1.
        994    1    1    2    0    0  0.62592057103E+01 -0.15112616971E+02  0.26805507746E+01  0.17200056453E+03  0.17120000000E+03 0.  0.
        998    1    1    2    0    0 -0.10999567332E+01  0.33458014752E-01  0.14293889072E+04  0.14294243104E+04  0.10000000000E+02 0.  0.
</event>
<event>
 5    1  0.1533416E-008  0.3831777E+03  0.7957747E-01  0.3437438E+00
         13   -1    0    0    0    0  0.00000000000E+00  0.00000000000E+00  0.14999999963E+04  0.15000000000E+04  0.10566000000E+00 0. -1.
        994   -1    0    0    0    0 -0.00000000000E+00 -0.00000000000E+00  0.11368683772E-12  0.17120000000E+03  0.17120000000E+03 0.  0.
         13    1    1    2    0    0  0.60555877083E+00 -0.17020131856E+02  0.51883774957E+02  0.54607589744E+02  0.10566000000E+00 0. -1.
        994    1    1    2    0    0  0.66503525042E+01  0.29622624617E+02  0.55928168295E+01  0.17396104931E+03  0.17120000000E+03 0.  0.
        998    1    1    2    0    0 -0.72559112750E+01 -0.12602492761E+02  0.14425234045E+04  0.14426313609E+04  0.10000000000E+02 0. -1.
</event>
<event>
 5    1  0.1533416E-008  0.3821217E+03  0.7957747E-01  0.3441972E+00
         13   -1    0    0    0    0  0.00000000000E+00  0.00000000000E+00  0.14999999963E+04  0.15000000000E+04  0.10566000000E+00 0. -1.
        994   -1    0    0    0    0 -0.00000000000E+00 -0.00000000000E+00  0.11368683772E-12  0.17120000000E+03  0.17120000000E+03 0.  0.
         13    1    1    2    0    0  0.20293054441E+02 -0.24390984394E+02  0.16176073590E+03  0.16484318312E+03  0.10566000000E+00 0. -1.
        994    1    1    2    0    0 -0.13370100999E+02  0.14711877642E+02  0.43789671129E+01  0.17240595784E+03  0.17120000000E+03 0.  0.
        998    1    1    2    0    0 -0.69229534416E+01  0.96791067523E+01  0.13338602933E+04  0.13339508590E+04  0.10000000000E+02 0. -1.
</event>
<event>
 5    1  0.1533416E-008  0.2956161E+03  0.7957747E-01  0.3927822E+00
         13   -1    0    0    0    0  0.00000000000E+00  0.00000000000E+00  0.14999999963E+04  0.15000000000E+04  0.10566000000E+00 0.  1.
        994   -1    0    0    0    0 -0.00000000000E+00 -0.00000000000E+00  0.11368683772E-12  0.17120000000E+03  0.17120000000E+03 0.  0.
         13    1    1    2    0    0  0.24761009110E+03 -0.11905634279E+03  0.70174865997E+03  0.75361552725E+03  0.10566000000E+00 0.  1.
        994    1    1    2    0    0 -0.14280895998E+03  0.39937922993E+02  0.19117870834E+03  0.29639192848E+03  0.17120000000E+03 0.  0.
        998    1    1    2    0    0 -0.10480113112E+03  0.79118419794E+02  0.60707262797E+03  0.62119254428E+03  0.10000000000E+02 0.  1.
</event>
<event>
 5    1  0.1533416E-008  0.3791763E+03  0.7957747E-01  0.3454753E+00
         13   -1    0    0    0    0  0.00000000000E+00  0.00000000000E+00  0.14999999963E+04  0.15000000000E+04  0.10566000000E+00 0.  1.
        994   -1    0    0    0    0 -0.00000000000E+00 -0.00000000000E+00  0.11368683772E-12  0.17120000000E+03  0.17120000000E+03 0.  0.
         13    1    1    2    0    0 -0.27655659540E+02 -0.18479060508E+02  0.92879959420E+02  0.98656014555E+02  0.10566000000E+00 0.  1.
        994    1    1    2    0    0  0.59192139894E+02  0.46173232085E+02  0.23678464512E+02  0.18842979188E+03  0.17120000000E+03 0.  0.
        998    1    1    2    0    0 -0.31536480354E+02 -0.27694171577E+02  0.13834415723E+04  0.13841141936E+04  0.10000000000E+02 0.  1.
</event>
<event>
 5    1  0.1533416E-008  0.3815779E+03  0.7957747E-01  0.3444317E+00
         13   -1    0    0    0    0  0.00000000000E+00  0.00000000000E+00  0.14999999963E+04  0.15000000000E+04  0.10566000000E+00 0.  1.
        994   -1    0    0    0    0 -0.00000000000E+00 -0.00000000000E+00  0.11368683772E-12  0.17120000000E+03  0.17120000000E+03 0.  0.
         13    1    1    2    0    0  0.25255572517E+02 -0.61944020309E+01  0.11186229362E+03  0.11484510637E+03  0.10566000000E+00 0.  1.
        994    1    1    2    0    0  0.27724522665E+01  0.17043542874E+01  0.33739721105E+01  0.17126416731E+03  0.17120000000E+03 0.  0.
        998    1    1    2    0    0 -0.28028024783E+02  0.44900477435E+01  0.13847637305E+04  0.13850907263E+04  0.10000000000E+02 0.  1.
</event>
<event>
 5    1  0.1533416E-008  0.3821945E+03  0.7957747E-01  0.3441658E+00
         13   -1    0    0    0    0  0.00000000000E+00  0.00000000000E+00  0.14999999963E+04  0.15000000000E+04  0.10566000000E+00 0.  1.
        994   -1    0    0    0    0 -0.00000000000E+00 -0.00000000000E+00  0.11368683772E-12  0.17120000000E+03  0.17120000000E+03 0.  0.
         13    1    1    2    0    0  0.12077107760E+02  0.11688206255E+00  0.22706689264E+02  0.25719158125E+02  0.10566000000E+00 0.  1.
        994    1    1    2    0    0 -0.11351588524E+02 -0.11498527685E+01  0.34616255811E+01  0.17161469510E+03  0.17120000000E+03 0.  0.
        998    1    1    2    0    0 -0.72551923658E+00  0.10329707060E+01  0.14738316814E+04  0.14738661468E+04  0.10000000000E+02 0.  1.
</event>
<event>
 5    1  0.1533416E-008  0.3765892E+03  0.7957747E-01  0.3466146E+00
         13   -1    0    0    0    0  0.00000000000E+00  0.00000000000E+00  0.14999999963E+04  0.15000000000E+04  0.10566000000E+00 0.  1.
        994   -1    0    0    0    0 -0.00000000000E+00 -0.00000000000E+00  0.11368683772E-12  0.17120000000E+03  0.17120000000E+03 0.  0.
         13    1    1    2    0    0  0.23856993911E+02  0.19881269284E+02  0.27855734893E+02  0.41717791855E+02  0.10566000000E+00 0.  1.
        994    1    1    2    0    0  0.82093102062E+01 -0.34828870689E+02  0.19062474983E+02  0.17593538859E+03  0.17120000000E+03 0.  0.
        998    1    1    2    0    0 -0.32066304117E+02  0.14947601406E+02  0.14530817864E+04  0.14535468195E+04  0.10000000000E+02 0.  1.
</event>
<event>
 5    1  0.1533416E-008  0.3800285E+03  0.7957747E-01  0.3451035E+00
         13   -1    0    0    0    0  0.00000000000E+00  0.00000000000E+00  0.14999999963E+04  0.15000000000E+04  0.10566000000E+00 0.  1.
        994   -1    0    0    0    0 -0.00000000000E+00 -0.00000000000E+00  0.11368683772E-12  0.17120000000E+03  0.17120000000E+03 0.  0.
         13    1    1    2    0    0 -0.15692494730E+02 -0.17979395400E+02  0.72070783719E+02  0.75919181237E+02  0.10566000000E+00 0.  1.
        994    1    1    2    0    0  0.12784992097E+02 -0.98401056215E+01  0.49892739593E+01  0.17203085931E+03  0.17120000000E+03 0.  0.
        998    1    1    2    0    0  0.29075026330E+01  0.27819501021E+02  0.14229399386E+04  0.14232499594E+04  0.10000000000E+02 0.  1.
</event>
<event>
 5    1  0.1632373E-008  0.3859923E+03  0.7957747E-01  0.3425475E+00
         13   -1    0    0    0    0  0.00000000000E+00  0.00000000000E+00  0.14999999963E+04  0.15000000000E+04  0.10566000000E+00 0.  1.
        994   -1    0    0    0    0 -0.00000000000E+00 -0.00000000000E+00  0.11368683772E-12  0.17120000000E+03  0.17120000000E+03 0.  0.
         13    1    1    2    0    0 -0.31430430363E+01  0.11992511979E+02  0.69314453023E+02  0.70414512886E+02  0.10566000000E+00 0.  1.
        994    1    1    2    0    0 -0.14705222546E+01 -0.69401702970E+01  0.13032905140E+01  0.17135188054E+03  0.17120000000E+03 0.  0.
        998    1    1    2    0    0  0.46135652909E+01 -0.50523416821E+01  0.14293822527E+04  0.14294336066E+04  0.10000000000E+02 0.  1.
</event>
<event>
 5    1  0.1533416E-008  0.3781045E+03  0.7957747E-01  0.3459454E+00
         13   -1    0    0    0    0  0.00000000000E+00  0.00000000000E+00  0.14999999963E+04  0.15000000000E+04  0.10566000000E+00 0. -1.
        994   -1    0    0    0    0 -0.00000000000E+00 -0.00000000000E+00  0.11368683772E-12  0.17120000000E+03  0.17120000000E+03 0.  0.
         13    1    1    2    0    0  0.11589180888E+02 -0.25843747144E+02  0.72168787724E+02  0.77527759323E+02  0.10566000000E+00 0. -1.
        994    1    1    2    0    0 -0.27943043165E+02  0.24189988919E+02  0.97019575402E+01  0.17541247734E+03  0.17120000000E+03 0.  0.
        998    1    1    2    0    0  0.16353862277E+02  0.16537582250E+01  0.14181292510E+04  0.14182597633E+04  0.10000000000E+02 0. -1.
</event>
<event>
 5    1  0.1533416E-008  0.3725468E+03  0.7957747E-01  0.3484268E+00
         13   -1    0    0    0    0  0.00000000000E+00  0.00000000000E+00  0.14999999963E+04  0.15000000000E+04  0.10566000000E+00 0.  1.
        994   -1    0    0    0    0 -0.00000000000E+00 -0.00000000000E+00  0.11368683772E-12  0.17120000000E+03  0.17120000000E+03 0.  0.
         13    1    1    2    0    0  0.12042686417E+03  0.64322800477E+02  0.70860928895E+03  0.72164200808E+03  0.10566000000E+00 0.  1.
        994    1    1    2    0    0 -0.10032081590E+03 -0.74434687898E+02  0.63482770023E+02  0.22123356652E+03  0.17120000000E+03 0.  0.
        998    1    1    2    0    0 -0.20106048268E+02  0.10111887421E+02  0.72790793731E+03  0.72832442540E+03  0.10000000000E+02 0.  1.
</event>
<event>
 5    1  0.1533416E-008  0.3786184E+03  0.7957747E-01  0.3457196E+00
         13   -1    0    0    0    0  0.00000000000E+00  0.00000000000E+00  0.14999999963E+04  0.15000000000E+04  0.10566000000E+00 0. -1.
        994   -1    0    0    0    0 -0.00000000000E+00 -0.00000000000E+00  0.11368683772E-12  0.17120000000E+03  0.17120000000E+03 0.  0.
         13    1    1    2    0    0 -0.12779655951E+02 -0.14903292042E+02  0.39147912997E+02  0.43794953772E+02  0.10566000000E+00 0. -1.
        994    1    1    2    0    0 -0.13136735547E+02  0.16107169462E+02  0.62843372820E+01  0.17257157247E+03  0.17120000000E+03 0.  0.
        998    1    1    2    0    0  0.25916391497E+02 -0.12038774202E+01  0.14545677460E+04  0.14548334738E+04  0.10000000000E+02 0. -1.
</event>
<event>
 5    1  0.1533416E-008  0.3786169E+03  0.7957747E-01  0.3457203E+00
         13   -1    0    0    0    0  0.00000000000E+00  0.00000000000E+00  0.14999999963E+04  0.15000000000E+04  0.10566000000E+00 0.  1.
        994   -1    0    0    0    0 -0.00000000000E+00 -0.00000000000E+00  0.11368683772E-12  0.17120000000E+03  0.17120000000E+03 0.  0.
         13    1    1    2    0    0 -0.52070654702E+02 -0.11192651847E+03  0.69306075585E+03  0.70396883530E+03  0.10566000000E+00 0.  1.
        994    1    1    2    0    0  0.40485263175E+02  0.12813339597E+03  0.68083900143E+02  0.22803964821E+03  0.17120000000E+03 0.  0.
        998    1    1    2    0    0  0.11585391527E+02 -0.16206877504E+02  0.73885534029E+03  0.73919151649E+03  0.10000000000E+02 0.  1.
</event>
<event>
 5    1  0.1533416E-008  0.3826659E+03  0.7957747E-01  0.3439632E+00
         13   -1    0    0    0    0  0.00000000000E+00  0.00000000000E+00  0.14999999963E+04  0.15000000000E+04  0.10566000000E+00 0. -1.
        994   -1    0    0    0    0 -0.00000000000E+00 -0.00000000000E+00  0.11368683772E-12  0.17120000000E+03  0.17120000000E+03 0.  0.
         13    1    1    2    0    0 -0.81834421312E+01  0.10523141461E+02  0.31503646877E+02  0.34208130056E+02  0.10566000000E+00 0. -1.
        994    1    1    2    0    0  0.11592126290E+01 -0.30791350190E+01  0.28293124772E+01  0.17125498491E+03  0.17120000000E+03 0.  0.
        998    1    1    2    0    0  0.70242295022E+01 -0.74440064420E+01  0.14656670369E+04  0.14657368850E+04  0.10000000000E+02 0. -1.
</event>
<event>
 5    1  0.1533416E-008  0.3687457E+03  0.7957747E-01  0.3501676E+00
         13   -1    0    0    0    0  0.00000000000E+00  0.00000000000E+00  0.14999999963E+04  0.15000000000E+04  0.10566000000E+00 0.  1.
        994   -1    0    0    0    0 -0.00000000000E+00 -0.00000000000E+00  0.11368683772E-12  0.17120000000E+03  0.17120000000E+03 0.  0.
         13    1    1    2    0    0 -0.31464053389E+01 -0.38050068060E+02  0.68668969306E+02  0.78569370976E+02  0.10566000000E+00 0.  1.
        994    1    1    2    0    0  0.32752930035E+02  0.27227956097E+02  0.16252520468E+02  0.17716574285E+03  0.17120000000E+03 0.  0.
        998    1    1    2    0    0 -0.29606524696E+02  0.10822111963E+02  0.14150785065E+04  0.14154648862E+04  0.10000000000E+02 0.  1.
</event>
<event>
 5    1  0.1533416E-008  0.3852468E+03  0.7957747E-01  0.3428626E+00
         13   -1    0    0    0    0  0.00000000000E+00  0.00000000000E+00  0.14999999963E+04  0.15000000000E+04  0.10566000000E+00 0. -1.
        994   -1    0    0    0    0 -0.00000000000E+00 -0.00000000000E+00  0.11368683772E-12  0.17120000000E+03  0.17120000000E+03 0.  0.
         13    1    1    2    0    0  0.50367603794E+01 -0.11101871078E+02  0.47767637729E+02  0.49298872957E+02  0.10566000000E+00 0. -1.
        994    1    1    2    0    0 -0.91319730906E+01  0.11218779414E+02  0.21955805666E+01  0.17182408015E+03  0.17120000000E+03 0.  0.
        998    1    1    2    0    0  0.40952127112E+01 -0.11690833618E+00  0.14500367780E+04  0.14500770469E+04  0.10000000000E+02 0. -1.
</event>
<event>
 5    1  0.1533416E-008  0.3689882E+03  0.7957747E-01  0.3500554E+00
         13   -1    0    0    0    0  0.00000000000E+00  0.00000000000E+00  0.14999999963E+04  0.15000000000E+04  0.10566000000E+00 0.  1.
        994   -1    0    0    0    0 -0.00000000000E+00 -0.00000000000E+00  0.11368683772E-12  0.17120000000E+03  0.17120000000E+03 0.  0.
         13    1    1    2    0    0 -0.10573935337E+03  0.85648344765E+02  0.71705266952E+03  0.72984997899E+03  0.10566000000E+00 0.  1.
        994    1    1    2    0    0  0.68287367349E+02 -0.84324241042E+02  0.51839471852E+02  0.20921403636E+03  0.17120000000E+03 0.  0.
        998    1    1    2    0    0  0.37451986023E+02 -0.13241037232E+01  0.73110785491E+03  0.73213598465E+03  0.10000000000E+02 0.  1.
</event>
<event>
 5    1  0.1533416E-008  0.3844067E+03  0.7957747E-01  0.3432192E+00
         13   -1    0    0    0    0  0.00000000000E+00  0.00000000000E+00  0.14999999963E+04  0.15000000000E+04  0.10566000000E+00 0. -1.
        994   -1    0    0    0    0 -0.00000000000E+00 -0.00000000000E+00  0.11368683772E-12  0.17120000000E+03  0.17120000000E+03 0.  0.
         13    1    1    2    0    0 -0.10892592005E+01  0.17156896449E+02  0.82441596269E+02  0.84215043435E+02  0.10566000000E+00 0. -1.
        994    1    1    2    0    0  0.12713153625E+02  0.67763936989E+00  0.24592235323E+01  0.17169033534E+03  0.17120000000E+03 0.  0.
        998    1    1    2    0    0 -0.11623894425E+02 -0.17834535819E+02  0.14150991765E+04  0.14152946212E+04  0.10000000000E+02 0. -1.
</event>
<event>
 5    1  0.1533416E-008  0.3981235E+03  0.7957747E-01  0.3375852E+00
         13   -1    0    0    0    0  0.00000000000E+00  0.00000000000E+00  0.14999999963E+04  0.15000000000E+04  0.10566000000E+00 0.  1.
        994   -1    0    0    0    0 -0.00000000000E+00 -0.00000000000E+00  0.11368683772E-12  0.17120000000E+03  0.17120000000E+03 0.  0.
         13    1    1    2    0    0 -0.29921190553E+02  0.87828669785E+02  0.17083807938E+03  0.19440888203E+03  0.10566000000E+00 0.  1.
        994    1    1    2    0    0  0.43355517601E+02 -0.19173158193E+02  0.35442938334E+02  0.18114345911E+03  0.17120000000E+03 0.  0.
        998    1    1    2    0    0 -0.13434327048E+02 -0.68655511593E+02  0.12937189786E+04  0.12956476589E+04  0.10000000000E+02 0.  1.
</event>
<event>
 5    1  0.1533416E-008  0.3948988E+03  0.7957747E-01  0.3388745E+00
         13   -1    0    0    0    0  0.00000000000E+00  0.00000000000E+00  0.14999999963E+04  0.15000000000E+04  0.10566000000E+00 0. -1.
        994   -1    0    0    0    0 -0.00000000000E+00 -0.00000000000E+00  0.11368683772E-12  0.17120000000E+03  0.17120000000E+03 0.  0.
         13    1    1    2    0    0  0.89980012590E+02 -0.90885012708E+02  0.21501619135E+03  0.25017686125E+03  0.10566000000E+00 0. -1.
        994    1    1    2    0    0 -0.11120306274E+03  0.13487450345E+03  0.15435557480E+03  0.28929627775E+03  0.17120000000E+03 0.  0.
        998    1    1    2    0    0  0.21223050154E+02 -0.43989490741E+02  0.11306282301E+04  0.11317268610E+04  0.10000000000E+02 0. -1.
</event>
<event>
 5    1  0.1533416E-008  0.3763550E+03  0.7957747E-01  0.3467185E+00
         13   -1    0    0    0    0  0.00000000000E+00  0.00000000000E+00  0.14999999963E+04  0.15000000000E+04  0.10566000000E+00 0.  1.
        994   -1    0    0    0    0 -0.00000000000E+00 -0.00000000000E+00  0.11368683772E-12  0.17120000000E+03  0.17120000000E+03 0.  0.
         13    1    1    2    0    0 -0.20113502043E+02  0.44802093960E+02  0.16256000869E+03  0.16981621883E+03  0.10566000000E+00 0.  1.
        994    1    1    2    0    0  0.49056375361E+02 -0.50744524273E+02  0.23031249109E+02  0.18660496548E+03  0.17120000000E+03 0.  0.
        998    1    1    2    0    0 -0.28942873318E+02  0.59424303129E+01  0.13144087385E+04  0.13147788157E+04  0.10000000000E+02 0.  1.
</event>
<event>
 5    1  0.1533416E-008  0.3749045E+03  0.7957747E-01  0.3473650E+00
         13   -1    0    0    0    0  0.00000000000E+00  0.00000000000E+00  0.14999999963E+04  0.15000000000E+04  0.10566000000E+00 0. -1.
        994   -1    0    0    0    0 -0.00000000000E+00 -0.00000000000E+00  0.11368683772E-12  0.17120000000E+03  0.17120000000E+03 0.  0.
         13    1    1    2    0    0  0.36396660848E+02  0.13672362234E+03  0.51975703749E+03  0.53867007993E+03  0.10566000000E+00 0. -1.
        994    1    1    2    0    0 -0.45559599889E+02 -0.18425525618E+03  0.14116577709E+03  0.29199810478E+03  0.17120000000E+03 0.  0.
        998    1    1    2    0    0  0.91629390405E+01  0.47531633844E+02  0.83907718170E+03  0.84053181530E+03  0.10000000000E+02 0.  1.
</event>
<event>
 5    1  0.1533416E-008  0.3713937E+03  0.7957747E-01  0.3489510E+00
         13   -1    0    0    0    0  0.00000000000E+00  0.00000000000E+00  0.14999999963E+04  0.15000000000E+04  0.10566000000E+00 0.  1.
        994   -1    0    0    0    0 -0.00000000000E+00 -0.00000000000E+00  0.11368683772E-12  0.17120000000E+03  0.17120000000E+03 0.  0.
         13    1    1    2    0    0 -0.43009539499E+02  0.38016615154E+02  0.16855295561E+03  0.17805952242E+03  0.10566000000E+00 0.  1.
        994    1    1    2    0    0  0.41475685205E+02 -0.41410912375E+02  0.20457194680E+02  0.18210720178E+03  0.17120000000E+03 0.  0.
        998    1    1    2    0    0  0.15338542931E+01  0.33942972211E+01  0.13109898460E+04  0.13110332758E+04  0.10000000000E+02 0.  1.
</event>
<event>
 5    1  0.1533416E-008  0.3825937E+03  0.7957747E-01  0.3439942E+00
         13   -1    0    0    0    0  0.00000000000E+00  0.00000000000E+00  0.14999999963E+04  0.15000000000E+04  0.10566000000E+00 0. -1.
        994   -1    0    0    0    0 -0.00000000000E+00 -0.00000000000E+00  0.11368683772E-12  0.17120000000E+03  0.17120000000E+03 0.  0.
         13    1    1    2    0    0  0.10190445878E+01  0.19017706786E+02  0.64488722379E+02  0.67242234506E+02  0.10566000000E+00 0. -1.
        994    1    1    2    0    0 -0.12599419738E+02 -0.76782372671E+01  0.35514722535E+01  0.17187132879E+03  0.17120000000E+03 0.  0.
        998    1    1    2    0    0  0.11580375150E+02 -0.11339469519E+02  0.14319598016E+04  0.14320864367E+04  0.10000000000E+02 0. -1.
</event>
<event>
 5    1  0.1533416E-008  0.3847658E+03  0.7957747E-01  0.3430666E+00
         13   -1    0    0    0    0  0.00000000000E+00  0.00000000000E+00  0.14999999963E+04  0.15000000000E+04  0.10566000000E+00 0.  1.
        994   -1    0    0    0    0 -0.00000000000E+00 -0.00000000000E+00  0.11368683772E-12  0.17120000000E+03  0.17120000000E+03 0.  0.
         13    1    1    2    0    0 -0.10076855264E+02  0.73456680757E+01  0.43707944710E+02  0.45452144573E+02  0.10566000000E+00 0.  1.
        994    1    1    2    0    0  0.10965331440E+02 -0.38365896852E+01  0.21907711992E+01  0.17160768454E+03  0.17120000000E+03 0.  0.
        998    1    1    2    0    0 -0.88847617603E+00 -0.35090783906E+01  0.14541012804E+04  0.14541401709E+04  0.10000000000E+02 0.  1.
</event>
<event>
 5    1  0.1533416E-008  0.3848086E+03  0.7957747E-01  0.3430484E+00
         13   -1    0    0    0    0  0.00000000000E+00  0.00000000000E+00  0.14999999963E+04  0.15000000000E+04  0.10566000000E+00 0.  1.
        994   -1    0    0    0    0 -0.00000000000E+00 -0.00000000000E+00  0.11368683772E-12  0.17120000000E+03  0.17120000000E+03 0.  0.
         13    1    1    2    0    0  0.43321466913E+01  0.13888993847E+02  0.55989169142E+02  0.57848680800E+02  0.10566000000E+00 0.  1.
        994    1    1    2    0    0  0.43003739744E+01 -0.28197804959E+02  0.44071012660E+01  0.17361587474E+03  0.17120000000E+03 0.  0.
        998    1    1    2    0    0 -0.86325206657E+01  0.14308811112E+02  0.14396037259E+04  0.14397354445E+04  0.10000000000E+02 0.  1.
</event>
<event>
 5    1  0.1533416E-008  0.3805544E+03  0.7957747E-01  0.3448748E+00
         13   -1    0    0    0    0  0.00000000000E+00  0.00000000000E+00  0.14999999963E+04  0.15000000000E+04  0.10566000000E+00 0.  1.
        994   -1    0    0    0    0 -0.00000000000E+00 -0.00000000000E+00  0.11368683772E-12  0.17120000000E+03  0.17120000000E+03 0.  0.
         13    1    1    2    0    0  0.20629765506E+02 -0.32967408405E+01  0.54043419378E+02  0.57940987799E+02  0.10566000000E+00 0.  1.
        994    1    1    2    0    0 -0.19158207499E+02  0.44804115378E+00  0.50799165198E+01  0.17234408376E+03  0.17120000000E+03 0.  0.
        998    1    1    2    0    0 -0.14715580061E+01  0.28486996868E+01  0.14408766604E+04  0.14409149284E+04  0.10000000000E+02 0.  1.
</event>
<event>
 5    1  0.1533416E-008  0.3822038E+03  0.7957747E-01  0.3441618E+00
         13   -1    0    0    0    0  0.00000000000E+00  0.00000000000E+00  0.14999999963E+04  0.15000000000E+04  0.10566000000E+00 0.  1.
        994   -1    0    0    0    0 -0.00000000000E+00 -0.00000000000E+00  0.11368683772E-12  0.17120000000E+03  0.17120000000E+03 0.  0.
         13    1    1    2    0    0  0.13443805788E+02  0.11612297865E+02  0.54909260661E+02  0.57711519181E+02  0.10566000000E+00 0.  1.
        994    1    1    2    0    0  0.70254604754E+01 -0.17565498305E+01  0.31988399291E+01  0.17138294880E+03  0.17120000000E+03 0.  0.
        998    1    1    2    0    0 -0.20469266263E+02 -0.98557480348E+01  0.14418918957E+04  0.14421055320E+04  0.10000000000E+02 0.  1.
</event>
<event>
 5    1  0.1533416E-008  0.3712984E+03  0.7957747E-01  0.3489945E+00
         13   -1    0    0    0    0  0.00000000000E+00  0.00000000000E+00  0.14999999963E+04  0.15000000000E+04  0.10566000000E+00 0.  1.
        994   -1    0    0    0    0 -0.00000000000E+00 -0.00000000000E+00  0.11368683772E-12  0.17120000000E+03  0.17120000000E+03 0.  0.
         13    1    1    2    0    0 -0.64500073674E+00  0.58626774902E+02  0.17409732586E+03  0.18370466732E+03  0.10566000000E+00 0.  1.
        994    1    1    2    0    0  0.33234264377E+01 -0.59727735238E+02  0.21012292251E+02  0.18256342445E+03  0.17120000000E+03 0.  0.
        998    1    1    2    0    0 -0.26784257010E+01  0.11009603360E+01  0.13048903782E+04  0.13049319082E+04  0.10000000000E+02 0.  1.
</event>
<event>
 5    1  0.1533416E-008  0.3848628E+03  0.7957747E-01  0.3430254E+00
         13   -1    0    0    0    0  0.00000000000E+00  0.00000000000E+00  0.14999999963E+04  0.15000000000E+04  0.10566000000E+00 0. -1.
        994   -1    0    0    0    0 -0.00000000000E+00 -0.00000000000E+00  0.11368683772E-12  0.17120000000E+03  0.17120000000E+03 0.  0.
         13    1    1    2    0    0 -0.66410439068E+01 -0.14882568962E+02  0.83670813528E+02  0.85243243272E+02  0.10566000000E+00 0. -1.
        994    1    1    2    0    0  0.35575948876E+01 -0.44577280240E+00  0.17405616080E+01  0.17124638609E+03  0.17120000000E+03 0.  0.
        998    1    1    2    0    0  0.30834490192E+01  0.15328341764E+02  0.14145886211E+04  0.14147103706E+04  0.10000000000E+02 0. -1.
</event>
<event>
 5    1  0.1533416E-008  0.3850400E+03  0.7957747E-01  0.3429502E+00
         13   -1    0    0    0    0  0.00000000000E+00  0.00000000000E+00  0.14999999963E+04  0.15000000000E+04  0.10566000000E+00 0. -1.
        994   -1    0    0    0    0 -0.00000000000E+00 -0.00000000000E+00  0.11368683772E-12  0.17120000000E+03  0.17120000000E+03 0.  0.
         13    1    1    2    0    0  0.84590863437E+01  0.80048053374E+01  0.39695809599E+02  0.41369088871E+02  0.10566000000E+00 0. -1.
        994    1    1    2    0    0 -0.12549773312E+02 -0.14711031175E+02  0.28407375550E+01  0.17231198751E+03  0.17120000000E+03 0.  0.
        998    1    1    2    0    0  0.40906869680E+01  0.67062258372E+01  0.14574634491E+04  0.14575189236E+04  0.10000000000E+02 0. -1.
</event>
<event>
 5    1  0.1533416E-008  0.3756524E+03  0.7957747E-01  0.3470310E+00
         13   -1    0    0    0    0  0.00000000000E+00  0.00000000000E+00  0.14999999963E+04  0.15000000000E+04  0.10566000000E+00 0.  1.
        994   -1    0    0    0    0 -0.00000000000E+00 -0.00000000000E+00  0.11368683772E-12  0.17120000000E+03  0.17120000000E+03 0.  0.
         13    1    1    2    0    0  0.76580515475E+02  0.29860274168E+02  0.41220592103E+03  0.42032123884E+03  0.10566000000E+00 0.  1.
        994    1    1    2    0    0 -0.64646237508E+02 -0.40888562224E+02  0.26455013563E+02  0.18936820823E+03  0.17120000000E+03 0.  0.
        998    1    1    2    0    0 -0.11934277967E+02  0.11028288056E+02  0.10613390617E+04  0.10615105529E+04  0.10000000000E+02 0.  1.
</event>
<event>
 5    1  0.1533416E-008  0.3759833E+03  0.7957747E-01  0.3468837E+00
         13   -1    0    0    0    0  0.00000000000E+00  0.00000000000E+00  0.14999999963E+04  0.15000000000E+04  0.10566000000E+00 0.  1.
        994   -1    0    0    0    0 -0.00000000000E+00 -0.00000000000E+00  0.11368683772E-12  0.17120000000E+03  0.17120000000E+03 0.  0.
         13    1    1    2    0    0 -0.25774710937E+02  0.28998469957E+02  0.50022765154E+02  0.63305096014E+02  0.10566000000E+00 0.  1.
        994    1    1    2    0    0 -0.25577957713E+01 -0.16199226042E+02  0.15099181916E+02  0.17264525055E+03  0.17120000000E+03 0.  0.
        998    1    1    2    0    0  0.28332506709E+02 -0.12799243915E+02  0.14348780492E+04  0.14352496534E+04  0.10000000000E+02 0.  1.
</event>
<event>
 5    1  0.1533416E-008  0.3846725E+03  0.7957747E-01  0.3431062E+00
         13   -1    0    0    0    0  0.00000000000E+00  0.00000000000E+00  0.14999999963E+04  0.15000000000E+04  0.10566000000E+00 0. -1.
        994   -1    0    0    0    0 -0.00000000000E+00 -0.00000000000E+00  0.11368683772E-12  0.17120000000E+03  0.17120000000E+03 0.  0.
         13    1    1    2    0    0  0.19760838803E+02 -0.49061959724E+01  0.10373659400E+03  0.10571590991E+03  0.10566000000E+00 0. -1.
        994    1    1    2    0    0 -0.27805542864E+02  0.71440938865E+00  0.43439810978E+01  0.17349918953E+03  0.17120000000E+03 0.  0.
        998    1    1    2    0    0  0.80447040614E+01  0.41917865837E+01  0.13919194212E+04  0.13919849006E+04  0.10000000000E+02 0. -1.
</event>
<event>
 5    1  0.1533416E-008  0.3860770E+03  0.7957747E-01  0.3425117E+00
         13   -1    0    0    0    0  0.00000000000E+00  0.00000000000E+00  0.14999999963E+04  0.15000000000E+04  0.10566000000E+00 0.  1.
        994   -1    0    0    0    0 -0.00000000000E+00 -0.00000000000E+00  0.11368683772E-12  0.17120000000E+03  0.17120000000E+03 0.  0.
         13    1    1    2    0    0 -0.37931259235E+02  0.15466131201E+02  0.35818322382E+02  0.54414566283E+02  0.10566000000E+00 0.  1.
        994    1    1    2    0    0  0.21049411348E+02 -0.62240480983E+01  0.21493856680E+02  0.17393459221E+03  0.17120000000E+03 0.  0.
        998    1    1    2    0    0  0.16881847887E+02 -0.92420831026E+01  0.14426878172E+04  0.14428508415E+04  0.10000000000E+02 0.  1.
</event>
<event>
 5    1  0.1533416E-008  0.3814762E+03  0.7957747E-01  0.3444756E+00
         13   -1    0    0    0    0  0.00000000000E+00  0.00000000000E+00  0.14999999963E+04  0.15000000000E+04  0.10566000000E+00 0. -1.
        994   -1    0    0    0    0 -0.00000000000E+00 -0.00000000000E+00  0.11368683772E-12  0.17120000000E+03  0.17120000000E+03 0.  0.
         13    1    1    2    0    0 -0.35340810608E+01 -0.10297328346E+02  0.15863509865E+02  0.19240239325E+02  0.10566000000E+00 0. -1.
        994    1    1    2    0    0  0.34784021621E+01  0.12287764545E+02  0.39325274749E+01  0.17172068370E+03  0.17120000000E+03 0.  0.
        998    1    1    2    0    0  0.55678898714E-01 -0.19904361987E+01  0.14802039589E+04  0.14802390770E+04  0.10000000000E+02 0. -1.
</event>
<event>
 5    1  0.1533416E-008  0.4017839E+03  0.7957747E-01  0.3361466E+00
         13   -1    0    0    0    0  0.00000000000E+00  0.00000000000E+00  0.14999999963E+04  0.15000000000E+04  0.10566000000E+00 0.  1.
        994   -1    0    0    0    0 -0.00000000000E+00 -0.00000000000E+00  0.11368683772E-12  0.17120000000E+03  0.17120000000E+03 0.  0.
         13    1    1    2    0    0 -0.35107625160E+02  0.66825418090E+02  0.94098666602E+02  0.12063478797E+03  0.10566000000E+00 0.  1.
        994    1    1    2    0    0 -0.14452043408E+02 -0.50655088280E+02  0.39871827710E+02  0.18350477425E+03  0.17120000000E+03 0.  0.
        998    1    1    2    0    0  0.49559668568E+02 -0.16170329810E+02  0.13660295020E+04  0.13670604378E+04  0.10000000000E+02 0.  1.
</event>
<event>
 5    1  0.1533416E-008  0.3846105E+03  0.7957747E-01  0.3431326E+00
         13   -1    0    0    0    0  0.00000000000E+00  0.00000000000E+00  0.14999999963E+04  0.15000000000E+04  0.10566000000E+00 0. -1.
        994   -1    0    0    0    0 -0.00000000000E+00 -0.00000000000E+00  0.11368683772E-12  0.17120000000E+03  0.17120000000E+03 0.  0.
         13    1    1    2    0    0  0.17046091626E+02  0.11004628886E+02  0.10258691393E+03  0.10457417066E+03  0.10566000000E+00 0. -1.
        994    1    1    2    0    0 -0.16552429485E+02 -0.21513980766E+02  0.42536623358E+01  0.17339079541E+03  0.17120000000E+03 0.  0.
        998    1    1    2    0    0 -0.49366214051E+00  0.10509351880E+02  0.13931594200E+04  0.13932350339E+04  0.10000000000E+02 0. -1.
</event>
<event>
 5    1  0.1533416E-008  0.3850344E+03  0.7957747E-01  0.3429526E+00
         13   -1    0    0    0    0  0.00000000000E+00  0.00000000000E+00  0.14999999963E+04  0.15000000000E+04  0.10566000000E+00 0. -1.
        994   -1    0    0    0    0 -0.00000000000E+00 -0.00000000000E+00  0.11368683772E-12  0.17120000000E+03  0.17120000000E+03 0.  0.
         13    1    1    2    0    0 -0.97217821674E+01 -0.58593711343E+01  0.39682551356E+02  0.41274221068E+02  0.10566000000E+00 0. -1.
        994    1    1    2    0    0  0.62664518579E+01  0.58082120351E+01  0.18531382001E+01  0.17142309607E+03  0.17120000000E+03 0.  0.
        998    1    1    2    0    0  0.34553303095E+01  0.51159099157E-01  0.14584643067E+04  0.14585026829E+04  0.10000000000E+02 0. -1.
</event>
<event>
 5    1  0.1710917E-008  0.3858981E+03  0.7957747E-01  0.3425872E+00
         13   -1    0    0    0    0  0.00000000000E+00  0.00000000000E+00  0.14999999963E+04  0.15000000000E+04  0.10566000000E+00 0.  1.
        994   -1    0    0    0    0 -0.00000000000E+00 -0.00000000000E+00  0.11368683772E-12  0.17120000000E+03  0.17120000000E+03 0.  0.
         13    1    1    2    0    0  0.96620764224E+01  0.69254426591E+01  0.61312650873E+02  0.62454541852E+02  0.10566000000E+00 0.  1.
        994    1    1    2    0    0 -0.22461742754E+01 -0.63280467819E+01  0.13327467752E+01  0.17133681942E+03  0.17120000000E+03 0.  0.
        998    1    1    2    0    0 -0.74159021470E+01 -0.59739587718E+00  0.14373545986E+04  0.14374086387E+04  0.10000000000E+02 0.  1.
</event>
<event>
 5    1  0.1533416E-008  0.3694030E+03  0.7957747E-01  0.3498639E+00
         13   -1    0    0    0    0  0.00000000000E+00  0.00000000000E+00  0.14999999963E+04  0.15000000000E+04  0.10566000000E+00 0.  1.
        994   -1    0    0    0    0 -0.00000000000E+00 -0.00000000000E+00  0.11368683772E-12  0.17120000000E+03  0.17120000000E+03 0.  0.
         13    1    1    2    0    0 -0.18856950595E+02  0.99692788029E+01  0.16860214512E+02  0.27189135754E+02  0.10566000000E+00 0.  1.
        994    1    1    2    0    0  0.15132924504E+02 -0.36935153786E+01  0.11470446187E+02  0.17228946165E+03  0.17120000000E+03 0.  0.
        998    1    1    2    0    0  0.37240260914E+01 -0.62757634243E+01  0.14716693356E+04  0.14717214026E+04  0.10000000000E+02 0.  1.
</event>
<event>
 5    1  0.1533416E-008  0.3792449E+03  0.7957747E-01  0.3454453E+00
         13   -1    0    0    0    0  0.00000000000E+00  0.00000000000E+00  0.14999999963E+04  0.15000000000E+04  0.10566000000E+00 0. -1.
        994   -1    0    0    0    0 -0.00000000000E+00 -0.00000000000E+00  0.11368683772E-12  0.17120000000E+03  0.17120000000E+03 0.  0.
         13    1    1    2    0    0 -0.12675186642E+02 -0.72058550189E+01  0.21726102913E+02  0.26165232940E+02  0.10566000000E+00 0. -1.
        994    1    1    2    0    0  0.77245903204E+01  0.47288674186E+01  0.47897642069E+01  0.17150630695E+03  0.17120000000E+03 0.  0.
        998    1    1    2    0    0  0.49505963211E+01  0.24769876003E+01  0.14734841292E+04  0.14735284601E+04  0.10000000000E+02 0. -1.
</event>
<event>
 5    1  0.1533416E-008  0.3820812E+03  0.7957747E-01  0.3442146E+00
         13   -1    0    0    0    0  0.00000000000E+00  0.00000000000E+00  0.14999999963E+04  0.15000000000E+04  0.10566000000E+00 0.  1.
        994   -1    0    0    0    0 -0.00000000000E+00 -0.00000000000E+00  0.11368683772E-12  0.17120000000E+03  0.17120000000E+03 0.  0.
         13    1    1    2    0    0  0.13338217007E+02  0.82448502154E+01  0.39766511736E+02  0.42746604633E+02  0.10566000000E+00 0.  1.
        994    1    1    2    0    0 -0.13925350900E+01 -0.48881709924E+01  0.31720388800E+01  0.17130480204E+03  0.17120000000E+03 0.  0.
        998    1    1    2    0    0 -0.11945681917E+02 -0.33566792229E+01  0.14570614457E+04  0.14571485933E+04  0.10000000000E+02 0.  1.
</event>
<event>
 5    1  0.1533416E-008  0.3794140E+03  0.7957747E-01  0.3453714E+00
         13   -1    0    0    0    0  0.00000000000E+00  0.00000000000E+00  0.14999999963E+04  0.15000000000E+04  0.10566000000E+00 0. -1.
        994   -1    0    0    0    0 -0.00000000000E+00 -0.00000000000E+00  0.11368683772E-12  0.17120000000E+03  0.17120000000E+03 0.  0.
         13    1    1    2    0    0 -0.10888107250E+03  0.65316990436E+01  0.49439279418E+03  0.50628252699E+03  0.10566000000E+00 0. -1.
        994    1    1    2    0    0  0.15445484637E+03 -0.30009871757E+02  0.92384660052E+02  0.25020243281E+03  0.17120000000E+03 0.  0.
        998    1    1    2    0    0 -0.45573773870E+02  0.23478172714E+02  0.91322254205E+03  0.91471504020E+03  0.10000000000E+02 0. -1.
</event>
<event>
 5    1  0.1533416E-008  0.3832043E+03  0.7957747E-01  0.3437324E+00
         13   -1    0    0    0    0  0.00000000000E+00  0.00000000000E+00  0.14999999963E+04  0.15000000000E+04  0.10566000000E+00 0. -1.
        994   -1    0    0    0    0 -0.00000000000E+00 -0.00000000000E+00  0.11368683772E-12  0.17120000000E+03  0.17120000000E+03 0.  0.
         13    1    1    2    0    0  0.99770378086E+01 -0.20229804227E+02  0.11150235384E+03  0.11376103172E+03  0.10566000000E+00 0. -1.
        994    1    1    2    0    0 -0.15982820435E+00 -0.19519481246E+01  0.25369997201E+01  0.17122999741E+03  0.17120000000E+03 0.  0.
        998    1    1    2    0    0 -0.98172096043E+01  0.22181752352E+02  0.13859606427E+04  0.13862089709E+04  0.10000000000E+02 0. -1.
</event>
<event>
 5    1  0.1533416E-008  0.3854935E+03  0.7957747E-01  0.3427582E+00
         13   -1    0    0    0    0  0.00000000000E+00  0.00000000000E+00  0.14999999963E+04  0.15000000000E+04  0.10566000000E+00 0.  1.
        994   -1    0    0    0    0 -0.00000000000E+00 -0.00000000000E+00  0.11368683772E-12  0.17120000000E+03  0.17120000000E+03 0.  0.
         13    1    1    2    0    0  0.12373452848E+02  0.45002598340E+01  0.64948082756E+02  0.66269293732E+02  0.10566000000E+00 0.  1.
        994    1    1    2    0    0 -0.45915075806E+01  0.80303902777E+00  0.14566508505E+01  0.17126963725E+03  0.17120000000E+03 0.  0.
        998    1    1    2    0    0 -0.77819452671E+01 -0.53032988618E+01  0.14335952627E+04  0.14336610690E+04  0.10000000000E+02 0.  1.
</event>
<event>
 5    1  0.1533416E-008  0.3770450E+03  0.7957747E-01  0.3464127E+00
         13   -1    0    0    0    0  0.00000000000E+00  0.00000000000E+00  0.14999999963E+04  0.15000000000E+04  0.10566000000E+00 0.  1.
        994   -1    0    0    0    0 -0.00000000000E+00 -0.00000000000E+00  0.11368683772E-12  0.17120000000E+03  0.17120000000E+03 0.  0.
         13    1    1    2    0    0 -0.92712974810E+01 -0.39888691557E+02  0.49298772552E+02  0.64089350209E+02  0.10566000000E+00 0.  1.
        994    1    1    2    0    0  0.12345181379E+02  0.43378304814E+02  0.22040878283E+02  0.17840773847E+03  0.17120000000E+03 0.  0.
        998    1    1    2    0    0 -0.30738838978E+01 -0.34896132570E+01  0.14286603454E+04  0.14287029113E+04  0.10000000000E+02 0.  1.
</event>
<event>
 5    1  0.1533416E-008  0.3782613E+03  0.7957747E-01  0.3458764E+00
         13   -1    0    0    0    0  0.00000000000E+00  0.00000000000E+00  0.14999999963E+04  0.15000000000E+04  0.10566000000E+00 0. -1.
        994   -1    0    0    0    0 -0.00000000000E+00 -0.00000000000E+00  0.11368683772E-12  0.17120000000E+03  0.17120000000E+03 0.  0.
         13    1    1    2    0    0  0.24218240332E+02  0.42373053947E+01  0.59188301518E+02  0.64091685283E+02  0.10566000000E+00 0. -1.
        994    1    1    2    0    0 -0.81767252264E+01 -0.24885756318E+02  0.73238667565E+01  0.17334716244E+03  0.17120000000E+03 0.  0.
        998    1    1    2    0    0 -0.16041515106E+02  0.20648450923E+02  0.14334878280E+04  0.14337611523E+04  0.10000000000E+02 0. -1.
</event>
<event>
 5    1  0.1533416E-008  0.4372511E+03  0.7957747E-01  0.3234393E+00
         13   -1    0    0    0    0  0.00000000000E+00  0.00000000000E+00  0.14999999963E+04  0.15000000000E+04  0.10566000000E+00 0. -1.
        994   -1    0    0    0    0 -0.00000000000E+00 -0.00000000000E+00  0.11368683772E-12  0.17120000000E+03  0.17120000000E+03 0.  0.
         13    1    1    2    0    0  0.55912106122E+02 -0.29420032705E+02  0.20023848444E+02  0.66277202762E+02  0.10566000000E+00 0. -1.
        994    1    1    2    0    0 -0.48788578744E+02  0.38664877421E+02  0.70453312391E+02  0.19531617288E+03  0.17120000000E+03 0.  0.
        998    1    1    2    0    0 -0.71235273779E+01 -0.92448447160E+01  0.14095228354E+04  0.14096066244E+04  0.10000000000E+02 0. -1.
</event>
<event>
 5    1  0.1533416E-008  0.3741917E+03  0.7957747E-01  0.3476846E+00
         13   -1    0    0    0    0  0.00000000000E+00  0.00000000000E+00  0.14999999963E+04  0.15000000000E+04  0.10566000000E+00 0. -1.
        994   -1    0    0    0    0 -0.00000000000E+00 -0.00000000000E+00  0.11368683772E-12  0.17120000000E+03  0.17120000000E+03 0.  0.
         13    1    1    2    0    0  0.65212563950E+02  0.17680288943E+03  0.89092290346E+03  0.91063470793E+03  0.10566000000E+00 0. -1.
        994    1    1    2    0    0 -0.34507216602E+02 -0.18792058084E+03  0.14391830360E+03  0.29415439961E+03  0.17120000000E+03 0.  0.
        998    1    1    2    0    0 -0.30705347348E+02  0.11117691414E+02  0.46515878922E+03  0.46641089246E+03  0.10000000000E+02 0. -1.
</event>
<event>
 5    1  0.1533416E-008  0.3855306E+03  0.7957747E-01  0.3427425E+00
         13   -1    0    0    0    0  0.00000000000E+00  0.00000000000E+00  0.14999999963E+04  0.15000000000E+04  0.10566000000E+00 0. -1.
        994   -1    0    0    0    0 -0.00000000000E+00 -0.00000000000E+00  0.11368683772E-12  0.17120000000E+03  0.17120000000E+03 0.  0.
         13    1    1    2    0    0 -0.14443851217E+01  0.17371624872E+02  0.10484611361E+03  0.10628536260E+03  0.10566000000E+00 0. -1.
        994    1    1    2    0    0  0.75056629091E+00 -0.18407466892E+02  0.24819719814E+01  0.17220626694E+03  0.17120000000E+03 0.  0.
        998    1    1    2    0    0  0.69381883077E+00  0.10358420205E+01  0.13926719107E+04  0.13927083705E+04  0.10000000000E+02 0.  0.
</event>
<event>
 5    1  0.1533416E-008  0.3823427E+03  0.7957747E-01  0.3441021E+00
         13   -1    0    0    0    0  0.00000000000E+00  0.00000000000E+00  0.14999999963E+04  0.15000000000E+04  0.10566000000E+00 0. -1.
        994   -1    0    0    0    0 -0.00000000000E+00 -0.00000000000E+00  0.11368683772E-12  0.17120000000E+03  0.17120000000E+03 0.  0.
         13    1    1    2    0    0 -0.18513674657E+02  0.55352073482E+00  0.57678124238E+02  0.60579201993E+02  0.10566000000E+00 0. -1.
        994    1    1    2    0    0  0.95615147500E+01 -0.96618502405E+01  0.35683686001E+01  0.17177586317E+03  0.17120000000E+03 0.  0.
        998    1    1    2    0    0  0.89521599073E+01  0.91083295057E+01  0.14387535034E+04  0.14388449348E+04  0.10000000000E+02 0. -1.
</event>
<event>
 5    1  0.1533416E-008  0.3852443E+03  0.7957747E-01  0.3428637E+00
         13   -1    0    0    0    0  0.00000000000E+00  0.00000000000E+00  0.14999999963E+04  0.15000000000E+04  0.10566000000E+00 0.  1.
        994   -1    0    0    0    0 -0.00000000000E+00 -0.00000000000E+00  0.11368683772E-12  0.17120000000E+03  0.17120000000E+03 0.  0.
         13    1    1    2    0    0  0.64375107994E+01 -0.92363861458E+01  0.43260281693E+02  0.44701403899E+02  0.10566000000E+00 0.  1.
        994    1    1    2    0    0 -0.32078974165E+01  0.41923695250E+00  0.15432920079E+01  0.17123751959E+03  0.17120000000E+03 0.  0.
        998    1    1    2    0    0 -0.32296133830E+01  0.88171491933E+01  0.14551964226E+04  0.14552610765E+04  0.10000000000E+02 0.  1.
</event>
<event>
 5    1  0.1533416E-008  0.3691510E+03  0.7957747E-01  0.3499802E+00
         13   -1    0    0    0    0  0.00000000000E+00  0.00000000000E+00  0.14999999963E+04  0.15000000000E+04  0.10566000000E+00 0. -1.
        994   -1    0    0    0    0 -0.00000000000E+00 -0.00000000000E+00  0.11368683772E-12  0.17120000000E+03  0.17120000000E+03 0.  0.
         13    1    1    2    0    0 -0.11625893749E+02  0.31941994068E+02  0.52190081074E+02  0.62283770896E+02  0.10566000000E+00 0. -1.
        994    1    1    2    0    0  0.52435466032E+01 -0.14239267200E+02  0.11293534146E+02  0.17224179349E+03  0.17120000000E+03 0.  0.
        998    1    1    2    0    0  0.63823471458E+01 -0.17702726867E+02  0.14365163811E+04  0.14366744356E+04  0.10000000000E+02 0. -1.
</event>
<event>
 5    1  0.1533416E-008  0.3858119E+03  0.7957747E-01  0.3426236E+00
         13   -1    0    0    0    0  0.00000000000E+00  0.00000000000E+00  0.14999999963E+04  0.15000000000E+04  0.10566000000E+00 0.  1.
        994   -1    0    0    0    0 -0.00000000000E+00 -0.00000000000E+00  0.11368683772E-12  0.17120000000E+03  0.17120000000E+03 0.  0.
         13    1    1    2    0    0  0.15368039215E+01  0.14732409649E+02  0.80883527745E+02  0.82228716912E+02  0.10566000000E+00 0.  1.
        994    1    1    2    0    0  0.62328660732E+01 -0.24221521572E+02  0.32819961603E+01  0.17304838117E+03  0.17120000000E+03 0.  0.
        998    1    1    2    0    0 -0.77696699947E+01  0.94891119229E+01  0.14158344724E+04  0.14159229019E+04  0.10000000000E+02 0.  1.
</event>
<event>
 5    1  0.1533416E-008  0.3715524E+03  0.7957747E-01  0.3488787E+00
         13   -1    0    0    0    0  0.00000000000E+00  0.00000000000E+00  0.14999999963E+04  0.15000000000E+04  0.10566000000E+00 0. -1.
        994   -1    0    0    0    0 -0.00000000000E+00 -0.00000000000E+00  0.11368683772E-12  0.17120000000E+03  0.17120000000E+03 0.  0.
         13    1    1    2    0    0 -0.24680359297E+02  0.15647370623E+02  0.32040007238E+02  0.43365119282E+02  0.10566000000E+00 0. -1.
        994    1    1    2    0    0  0.11636729642E+02 -0.86943084050E+01  0.12504058140E+02  0.17226954445E+03  0.17120000000E+03 0.  0.
        998    1    1    2    0    0  0.13043629655E+02 -0.69530622182E+01  0.14554559309E+04  0.14555653363E+04  0.10000000000E+02 0. -1.
</event>
<event>
 5    1  0.1533416E-008  0.3698177E+03  0.7957747E-01  0.3496729E+00
         13   -1    0    0    0    0  0.00000000000E+00  0.00000000000E+00  0.14999999963E+04  0.15000000000E+04  0.10566000000E+00 0.  1.
        994   -1    0    0    0    0 -0.00000000000E+00 -0.00000000000E+00  0.11368683772E-12  0.17120000000E+03  0.17120000000E+03 0.  0.
         13    1    1    2    0    0  0.89581421568E+00  0.64907187671E+02  0.33544565404E+03  0.34166876280E+03  0.10566000000E+00 0.  1.
        994    1    1    2    0    0  0.21679550066E+02  0.16734744421E+02  0.11963782072E+02  0.17378902912E+03  0.17120000000E+03 0.  0.
        998    1    1    2    0    0 -0.22575364281E+02 -0.81641932092E+02  0.11525905602E+04  0.11557422081E+04  0.10000000000E+02 0.  1.
</event>
<event>
 5    1  0.1533416E-008  0.3723878E+03  0.7957747E-01  0.3484988E+00
         13   -1    0    0    0    0  0.00000000000E+00  0.00000000000E+00  0.14999999963E+04  0.15000000000E+04  0.10566000000E+00 0.  1.
        994   -1    0    0    0    0 -0.00000000000E+00 -0.00000000000E+00  0.11368683772E-12  0.17120000000E+03  0.17120000000E+03 0.  0.
         13    1    1    2    0    0 -0.57609067598E+02  0.53582172637E+02  0.29163906139E+03  0.30206490559E+03  0.10566000000E+00 0.  1.
        994    1    1    2    0    0  0.58251640658E+02 -0.63971821324E+02  0.34151435263E+02  0.19483687560E+03  0.17120000000E+03 0.  0.
        998    1    1    2    0    0 -0.64257306065E+00  0.10389648687E+02  0.11742094996E+04  0.11742982188E+04  0.10000000000E+02 0.  1.
</event>
<event>
 5    1  0.1533416E-008  0.3739588E+03  0.7957747E-01  0.3477892E+00
         13   -1    0    0    0    0  0.00000000000E+00  0.00000000000E+00  0.14999999963E+04  0.15000000000E+04  0.10566000000E+00 0. -1.
        994   -1    0    0    0    0 -0.00000000000E+00 -0.00000000000E+00  0.11368683772E-12  0.17120000000E+03  0.17120000000E+03 0.  0.
         13    1    1    2    0    0  0.47519764052E+02 -0.11421316358E+02  0.20131043027E+03  0.20715809166E+03  0.10566000000E+00 0. -1.
        994    1    1    2    0    0 -0.13271521076E+02 -0.63932844893E+02  0.21900389863E+02  0.18453349020E+03  0.17120000000E+03 0.  0.
        998    1    1    2    0    0 -0.34248242976E+02  0.75354161251E+02  0.12767891761E+04  0.12795084181E+04  0.10000000000E+02 0. -1.
</event>
<event>
 5    1  0.1533416E-008  0.3836496E+03  0.7957747E-01  0.3435420E+00
         13   -1    0    0    0    0  0.00000000000E+00  0.00000000000E+00  0.14999999963E+04  0.15000000000E+04  0.10566000000E+00 0. -1.
        994   -1    0    0    0    0 -0.00000000000E+00 -0.00000000000E+00  0.11368683772E-12  0.17120000000E+03  0.17120000000E+03 0.  0.
         13    1    1    2    0    0  0.89628841469E+01  0.11325003342E+02  0.45270605568E+02  0.47518710898E+02  0.10566000000E+00 0. -1.
        994    1    1    2    0    0 -0.44102465099E+01 -0.52338253493E+01  0.24568062327E+01  0.17135436703E+03  0.17120000000E+03 0.  0.
        998    1    1    2    0    0 -0.45526376369E+01 -0.60911779923E+01  0.14522725845E+04  0.14523269221E+04  0.10000000000E+02 0. -1.
</event>
<event>
 5    1  0.1533416E-008  0.4132028E+03  0.7957747E-01  0.3318213E+00
         13   -1    0    0    0    0  0.00000000000E+00  0.00000000000E+00  0.14999999963E+04  0.15000000000E+04  0.10566000000E+00 0.  1.
        994   -1    0    0    0    0 -0.00000000000E+00 -0.00000000000E+00  0.11368683772E-12  0.17120000000E+03  0.17120000000E+03 0.  0.
         13    1    1    2    0    0  0.98843776198E+01  0.39232369369E+02  0.79941324742E+01  0.41240720718E+02  0.10566000000E+00 0.  1.
        994    1    1    2    0    0 -0.19804778503E+02 -0.47815611691E+02  0.47087240629E+02  0.18494650633E+03  0.17120000000E+03 0.  0.
        998    1    1    2    0    0  0.99204008837E+01  0.85832423217E+01  0.14449186232E+04  0.14450127730E+04  0.10000000000E+02 0.  1.
</event>
<event>
 5    1  0.1533416E-008  0.3751129E+03  0.7957747E-01  0.3472718E+00
         13   -1    0    0    0    0  0.00000000000E+00  0.00000000000E+00  0.14999999963E+04  0.15000000000E+04  0.10566000000E+00 0.  1.
        994   -1    0    0    0    0 -0.00000000000E+00 -0.00000000000E+00  0.11368683772E-12  0.17120000000E+03  0.17120000000E+03 0.  0.
         13    1    1    2    0    0 -0.21180028150E+02  0.79274966602E+02  0.38047154396E+03  0.38921937369E+03  0.10566000000E+00 0.  1.
        994    1    1    2    0    0  0.22597625821E+02 -0.77512269664E+02  0.29103947360E+02  0.19150792253E+03  0.17120000000E+03 0.  0.
        998    1    1    2    0    0 -0.14175976716E+01 -0.17626969386E+01  0.10904245050E+04  0.10904727038E+04  0.10000000000E+02 0.  0.
</event>
<event>
 5    1  0.1533416E-008  0.3796355E+03  0.7957747E-01  0.3452747E+00
         13   -1    0    0    0    0  0.00000000000E+00  0.00000000000E+00  0.14999999963E+04  0.15000000000E+04  0.10566000000E+00 0.  1.
        994   -1    0    0    0    0 -0.00000000000E+00 -0.00000000000E+00  0.11368683772E-12  0.17120000000E+03  0.17120000000E+03 0.  0.
         13    1    1    2    0    0 -0.94338468830E+00  0.11293004399E+02  0.13916082341E+02  0.17946878135E+02  0.10566000000E+00 0.  1.
        994    1    1    2    0    0 -0.58660838268E+01  0.20133743718E+02  0.57905702932E+01  0.17257679241E+03  0.17120000000E+03 0.  0.
        998    1    1    2    0    0  0.68094685151E+01 -0.31426748117E+02  0.14802933436E+04  0.14806763295E+04  0.10000000000E+02 0.  1.
</event>
<event>
 5    1  0.1533416E-008  0.3798404E+03  0.7957747E-01  0.3451854E+00
         13   -1    0    0    0    0  0.00000000000E+00  0.00000000000E+00  0.14999999963E+04  0.15000000000E+04  0.10566000000E+00 0. -1.
        994   -1    0    0    0    0 -0.00000000000E+00 -0.00000000000E+00  0.11368683772E-12  0.17120000000E+03  0.17120000000E+03 0.  0.
         13    1    1    2    0    0 -0.23730656118E+02  0.58920996480E+01  0.73566674048E+02  0.77523722644E+02  0.10566000000E+00 0. -1.
        994    1    1    2    0    0  0.21526139353E+01 -0.11120008479E+01  0.42333854112E+01  0.17126947143E+03  0.17120000000E+03 0.  0.
        998    1    1    2    0    0  0.21578042183E+02 -0.47800988000E+01  0.14221999368E+04  0.14224068059E+04  0.10000000000E+02 0. -1.
</event>
<event>
 5    1  0.1533416E-008  0.3799088E+03  0.7957747E-01  0.3451556E+00
         13   -1    0    0    0    0  0.00000000000E+00  0.00000000000E+00  0.14999999963E+04  0.15000000000E+04  0.10566000000E+00 0. -1.
        994   -1    0    0    0    0 -0.00000000000E+00 -0.00000000000E+00  0.11368683772E-12  0.17120000000E+03  0.17120000000E+03 0.  0.
         13    1    1    2    0    0 -0.64793209095E+02 -0.11307958170E+03  0.41610192419E+03  0.43603437275E+03  0.10566000000E+00 0. -1.
        994    1    1    2    0    0  0.89581177365E+02  0.77465000767E+02  0.69024793269E+02  0.21931592684E+03  0.17120000000E+03 0.  0.
        998    1    1    2    0    0 -0.24787968270E+02  0.35614580936E+02  0.10148732788E+04  0.10158497004E+04  0.10000000000E+02 0. -1.
</event>
<event>
 5    1  0.1533416E-008  0.3846324E+03  0.7957747E-01  0.3431233E+00
         13   -1    0    0    0    0  0.00000000000E+00  0.00000000000E+00  0.14999999963E+04  0.15000000000E+04  0.10566000000E+00 0.  1.
        994   -1    0    0    0    0 -0.00000000000E+00 -0.00000000000E+00  0.11368683772E-12  0.17120000000E+03  0.17120000000E+03 0.  0.
         13    1    1    2    0    0  0.15564752269E+02  0.79945046342E+01  0.79058753970E+02  0.80972040612E+02  0.10566000000E+00 0.  1.
        994    1    1    2    0    0 -0.18518889784E+02 -0.10068639942E+02  0.32770756831E+01  0.17252392882E+03  0.17120000000E+03 0.  0.
        998    1    1    2    0    0  0.29541375143E+01  0.20741353076E+01  0.14176641666E+04  0.14177040306E+04  0.10000000000E+02 0.  1.
</event>
<event>
 5    1  0.1533416E-008  0.3789345E+03  0.7957747E-01  0.3455811E+00
         13   -1    0    0    0    0  0.00000000000E+00  0.00000000000E+00  0.14999999963E+04  0.15000000000E+04  0.10566000000E+00 0. -1.
        994   -1    0    0    0    0 -0.00000000000E+00 -0.00000000000E+00  0.11368683772E-12  0.17120000000E+03  0.17120000000E+03 0.  0.
         13    1    1    2    0    0 -0.24839864056E+01 -0.33565644997E+02  0.34706577761E+02  0.48346462295E+02  0.10566000000E+00 0. -1.
        994    1    1    2    0    0  0.45754080495E+02 -0.48938290570E+02  0.32127474776E+02  0.18662799040E+03  0.17120000000E+03 0.  0.
        998    1    1    2    0    0 -0.43270094089E+02  0.82503935566E+02  0.14331659437E+04  0.14362255473E+04  0.10000000000E+02 0. -1.
</event>
<event>
 5    1  0.1533416E-008  0.3851153E+03  0.7957747E-01  0.3429183E+00
         13   -1    0    0    0    0  0.00000000000E+00  0.00000000000E+00  0.14999999963E+04  0.15000000000E+04  0.10566000000E+00 0. -1.
        994   -1    0    0    0    0 -0.00000000000E+00 -0.00000000000E+00  0.11368683772E-12  0.17120000000E+03  0.17120000000E+03 0.  0.
         13    1    1    2    0    0 -0.63987003722E+01 -0.10552752312E+02  0.47111781993E+02  0.48701489858E+02  0.10566000000E+00 0. -1.
        994    1    1    2    0    0  0.33252937434E+01  0.13445709233E+02  0.22038284236E+01  0.17177351814E+03  0.17120000000E+03 0.  0.
        998    1    1    2    0    0  0.30734066289E+01 -0.28929569206E+01  0.14506843859E+04  0.14507249920E+04  0.10000000000E+02 0. -1.
</event>
<event>
 5    1  0.1533416E-008  0.3838529E+03  0.7957747E-01  0.3434552E+00
         13   -1    0    0    0    0  0.00000000000E+00  0.00000000000E+00  0.14999999963E+04  0.15000000000E+04  0.10566000000E+00 0.  1.
        994   -1    0    0    0    0 -0.00000000000E+00 -0.00000000000E+00  0.11368683772E-12  0.17120000000E+03  0.17120000000E+03 0.  0.
         13    1    1    2    0    0 -0.69051330466E+01 -0.85364994675E+01  0.27168177995E+02  0.29303135415E+02  0.10566000000E+00 0.  1.
        994    1    1    2    0    0  0.18498648033E+01  0.25332230257E+01  0.22331904111E+01  0.17124329580E+03  0.17120000000E+03 0.  0.
        998    1    1    2    0    0  0.50552682433E+01  0.60032764418E+01  0.14705986279E+04  0.14706535688E+04  0.10000000000E+02 0.  1.
</event>
<event>
 5    1  0.1533416E-008  0.3834248E+03  0.7957747E-01  0.3436381E+00
         13   -1    0    0    0    0  0.00000000000E+00  0.00000000000E+00  0.14999999963E+04  0.15000000000E+04  0.10566000000E+00 0.  1.
        994   -1    0    0    0    0 -0.00000000000E+00 -0.00000000000E+00  0.11368683772E-12  0.17120000000E+03  0.17120000000E+03 0.  0.
         13    1    1    2    0    0  0.13464578012E+01  0.17392477244E+02  0.63618932499E+02  0.65967347602E+02  0.10566000000E+00 0.  1.
        994    1    1    2    0    0  0.14911567982E+01 -0.77667175816E+01  0.26210143302E+01  0.17140261132E+03  0.17120000000E+03 0.  0.
        998    1    1    2    0    0 -0.28376145994E+01 -0.96257596623E+01  0.14337600494E+04  0.14338300411E+04  0.10000000000E+02 0.  1.
</event>
<event>
 5    1  0.1533416E-008  0.3834335E+03  0.7957747E-01  0.3436343E+00
         13   -1    0    0    0    0  0.00000000000E+00  0.00000000000E+00  0.14999999963E+04  0.15000000000E+04  0.10566000000E+00 0.  1.
        994   -1    0    0    0    0 -0.00000000000E+00 -0.00000000000E+00  0.11368683772E-12  0.17120000000E+03  0.17120000000E+03 0.  0.
         13    1    1    2    0    0  0.20240413970E+01 -0.15109680209E+02  0.48374996660E+02  0.50720317877E+02  0.10566000000E+00 0.  1.
        994    1    1    2    0    0 -0.19782927065E+01  0.61958782006E+01  0.25497122558E+01  0.17134247454E+03  0.17120000000E+03 0.  0.
        998    1    1    2    0    0 -0.45748690510E-01  0.89138020081E+01  0.14490752874E+04  0.14491372076E+04  0.10000000000E+02 0.  1.
</event>
<event>
 5    1  0.1533416E-008  0.3767728E+03  0.7957747E-01  0.3465332E+00
         13   -1    0    0    0    0  0.00000000000E+00  0.00000000000E+00  0.14999999963E+04  0.15000000000E+04  0.10566000000E+00 0.  1.
        994   -1    0    0    0    0 -0.00000000000E+00 -0.00000000000E+00  0.11368683772E-12  0.17120000000E+03  0.17120000000E+03 0.  0.
         13    1    1    2    0    0 -0.52741150886E+01  0.20854095901E+02  0.39596153737E+02  0.45061914746E+02  0.10566000000E+00 0.  1.
        994    1    1    2    0    0  0.77312716366E+01  0.29931028396E+01  0.60034199882E+01  0.17150572083E+03  0.17120000000E+03 0.  0.
        998    1    1    2    0    0 -0.24571565480E+01 -0.23847198740E+02  0.14544004226E+04  0.14546323644E+04  0.10000000000E+02 0.  1.
</event>
<event>
 5    1  0.1533416E-008  0.3813484E+03  0.7957747E-01  0.3445308E+00
         13   -1    0    0    0    0  0.00000000000E+00  0.00000000000E+00  0.14999999963E+04  0.15000000000E+04  0.10566000000E+00 0. -1.
        994   -1    0    0    0    0 -0.00000000000E+00 -0.00000000000E+00  0.11368683772E-12  0.17120000000E+03  0.17120000000E+03 0.  0.
         13    1    1    2    0    0  0.10859013444E+02 -0.35405176185E+01  0.17294332092E+02  0.20725793701E+02  0.10566000000E+00 0. -1.
        994    1    1    2    0    0 -0.12532081234E+02 -0.96019191237E+00  0.39799529781E+01  0.17170688703E+03  0.17120000000E+03 0.  0.
        998    1    1    2    0    0  0.16730677898E+01  0.45007095309E+01  0.14787257112E+04  0.14787673193E+04  0.10000000000E+02 0. -1.
</event>
<event>
 5    1  0.1533416E-008  0.3776726E+03  0.7957747E-01  0.3461355E+00
         13   -1    0    0    0    0  0.00000000000E+00  0.00000000000E+00  0.14999999963E+04  0.15000000000E+04  0.10566000000E+00 0.  1.
        994   -1    0    0    0    0 -0.00000000000E+00 -0.00000000000E+00  0.11368683772E-12  0.17120000000E+03  0.17120000000E+03 0.  0.
         13    1    1    2    0    0 -0.14427839147E+02  0.72197696838E+01  0.20288949786E+02  0.25921810589E+02  0.10566000000E+00 0.  1.
        994    1    1    2    0    0  0.31912135822E+02 -0.39760567066E+02  0.14119751951E+02  0.17918731680E+03  0.17120000000E+03 0.  0.
        998    1    1    2    0    0 -0.17484296674E+02  0.32540797383E+02  0.14655912945E+04  0.14660908726E+04  0.10000000000E+02 0.  1.
</event>
<event>
 5    1  0.1533416E-008  0.3696925E+03  0.7957747E-01  0.3497305E+00
         13   -1    0    0    0    0  0.00000000000E+00  0.00000000000E+00  0.14999999963E+04  0.15000000000E+04  0.10566000000E+00 0. -1.
        994   -1    0    0    0    0 -0.00000000000E+00 -0.00000000000E+00  0.11368683772E-12  0.17120000000E+03  0.17120000000E+03 0.  0.
         13    1    1    2    0    0 -0.58574419307E+02 -0.69377554930E+02  0.31626183523E+03  0.32903763814E+03  0.10566000000E+00 0. -1.
        994    1    1    2    0    0  0.50358058222E+02  0.64248123011E+02  0.34424922346E+02  0.19276480648E+03  0.17120000000E+03 0.  0.
        998    1    1    2    0    0  0.82163610857E+01  0.51294319195E+01  0.11493132387E+04  0.11493975554E+04  0.10000000000E+02 0. -1.
</event>
<event>
 5    1  0.1533416E-008  0.3855438E+03  0.7957747E-01  0.3427369E+00
         13   -1    0    0    0    0  0.00000000000E+00  0.00000000000E+00  0.14999999963E+04  0.15000000000E+04  0.10566000000E+00 0.  1.
        994   -1    0    0    0    0 -0.00000000000E+00 -0.00000000000E+00  0.11368683772E-12  0.17120000000E+03  0.17120000000E+03 0.  0.
         13    1    1    2    0    0 -0.67627361406E+01 -0.13220645764E+02  0.78807841570E+02  0.80194807385E+02  0.10566000000E+00 0.  1.
        994    1    1    2    0    0  0.14605343553E+01  0.15203521218E+02  0.21266007381E+01  0.17189311402E+03  0.17120000000E+03 0.  0.
        998    1    1    2    0    0  0.53022017853E+01 -0.19828754537E+01  0.14190655540E+04  0.14191120786E+04  0.10000000000E+02 0.  1.
</event>
<event>
 5    1  0.1533416E-008  0.3838776E+03  0.7957747E-01  0.3434446E+00
         13   -1    0    0    0    0  0.00000000000E+00  0.00000000000E+00  0.14999999963E+04  0.15000000000E+04  0.10566000000E+00 0.  1.
        994   -1    0    0    0    0 -0.00000000000E+00 -0.00000000000E+00  0.11368683772E-12  0.17120000000E+03  0.17120000000E+03 0.  0.
         13    1    1    2    0    0  0.42224292295E+01  0.11652333071E+02  0.34133593933E+02  0.36314173175E+02  0.10566000000E+00 0.  1.
        994    1    1    2    0    0  0.11375965624E+01 -0.12130479256E+02  0.26785302496E+01  0.17165388774E+03  0.17120000000E+03 0.  0.
        998    1    1    2    0    0 -0.53600257919E+01  0.47814618528E+00  0.14631878721E+04  0.14632319391E+04  0.10000000000E+02 0.  1.
</event>
<event>
 5    1  0.1533416E-008  0.3808744E+03  0.7957747E-01  0.3447360E+00
         13   -1    0    0    0    0  0.00000000000E+00  0.00000000000E+00  0.14999999963E+04  0.15000000000E+04  0.10566000000E+00 0.  1.
        994   -1    0    0    0    0 -0.00000000000E+00 -0.00000000000E+00  0.11368683772E-12  0.17120000000E+03  0.17120000000E+03 0.  0.
         13    1    1    2    0    0 -0.19035764210E+02 -0.17797242529E+02  0.90789964499E+02  0.94455973758E+02  0.10566000000E+00 0.  1.
        994    1    1    2    0    0 -0.21880790289E+01  0.26060296832E+02  0.59754396203E+01  0.17328898592E+03  0.17120000000E+03 0.  0.
        998    1    1    2    0    0  0.21223843239E+02 -0.82630543032E+01  0.14032345922E+04  0.14034550403E+04  0.10000000000E+02 0.  1.
</event>
<event>
 5    1  0.1533416E-008  0.3834092E+03  0.7957747E-01  0.3436447E+00
         13   -1    0    0    0    0  0.00000000000E+00  0.00000000000E+00  0.14999999963E+04  0.15000000000E+04  0.10566000000E+00 0.  1.
        994   -1    0    0    0    0 -0.00000000000E+00 -0.00000000000E+00  0.11368683772E-12  0.17120000000E+03  0.17120000000E+03 0.  0.
         13    1    1    2    0    0 -0.14894240342E+02 -0.18916202206E+02  0.13572948602E+03  0.13784834290E+03  0.10566000000E+00 0.  1.
        994    1    1    2    0    0 -0.42709790419E+00 -0.22830370638E+01  0.24398642341E+01  0.17123313817E+03  0.17120000000E+03 0.  0.
        998    1    1    2    0    0  0.15321338246E+02  0.21199239270E+02  0.13618306460E+04  0.13621185189E+04  0.10000000000E+02 0.  1.
</event>
<event>
 5    1  0.1533416E-008  0.3771558E+03  0.7957747E-01  0.3463637E+00
         13   -1    0    0    0    0  0.00000000000E+00  0.00000000000E+00  0.14999999963E+04  0.15000000000E+04  0.10566000000E+00 0. -1.
        994   -1    0    0    0    0 -0.00000000000E+00 -0.00000000000E+00  0.11368683772E-12  0.17120000000E+03  0.17120000000E+03 0.  0.
         13    1    1    2    0    0  0.14860098267E+02 -0.70189257680E+01  0.22126720996E+02  0.27562488740E+02  0.10566000000E+00 0.  1.
        994    1    1    2    0    0 -0.32301613534E+01  0.90707908144E+01  0.58887513767E+01  0.17157164854E+03  0.17120000000E+03 0.  0.
        998    1    1    2    0    0 -0.11629936913E+02 -0.20518650464E+01  0.14719845239E+04  0.14720658627E+04  0.10000000000E+02 0. -1.
</event>
<event>
 5    1  0.1533416E-008  0.3814127E+03  0.7957747E-01  0.3445030E+00
         13   -1    0    0    0    0  0.00000000000E+00  0.00000000000E+00  0.14999999963E+04  0.15000000000E+04  0.10566000000E+00 0.  1.
        994   -1    0    0    0    0 -0.00000000000E+00 -0.00000000000E+00  0.11368683772E-12  0.17120000000E+03  0.17120000000E+03 0.  0.
         13    1    1    2    0    0  0.37836136966E+01  0.39424841007E+02  0.20477756830E+03  0.20857252327E+03  0.10566000000E+00 0.  1.
        994    1    1    2    0    0 -0.15347310103E+02 -0.35234697274E+02  0.83519620670E+01  0.17565938372E+03  0.17120000000E+03 0.  0.
        998    1    1    2    0    0  0.11563696406E+02 -0.41901437325E+01  0.12868704659E+04  0.12869680930E+04  0.10000000000E+02 0.  1.
</event>
<event>
 5    1  0.1752768E-008  0.3856508E+03  0.7957747E-01  0.3426917E+00
         13   -1    0    0    0    0  0.00000000000E+00  0.00000000000E+00  0.14999999963E+04  0.15000000000E+04  0.10566000000E+00 0. -1.
        994   -1    0    0    0    0 -0.00000000000E+00 -0.00000000000E+00  0.11368683772E-12  0.17120000000E+03  0.17120000000E+03 0.  0.
         13    1    1    2    0    0  0.11618439139E+02  0.56357089223E+01  0.65564595955E+02  0.66824222778E+02  0.10566000000E+00 0. -1.
        994    1    1    2    0    0 -0.50240242914E+01 -0.25421015745E+01  0.14114060249E+01  0.17129838052E+03  0.17120000000E+03 0.  0.
        998    1    1    2    0    0 -0.65944148477E+01 -0.30936073478E+01  0.14330239943E+04  0.14330773967E+04  0.10000000000E+02 0. -1.
</event>
<event>
 5    1  0.1687023E-008  0.3855998E+03  0.7957747E-01  0.3427132E+00
         13   -1    0    0    0    0  0.00000000000E+00  0.00000000000E+00  0.14999999963E+04  0.15000000000E+04  0.10566000000E+00 0. -1.
        994   -1    0    0    0    0 -0.00000000000E+00 -0.00000000000E+00  0.11368683772E-12  0.17120000000E+03  0.17120000000E+03 0.  0.
         13    1    1    2    0    0 -0.13091217446E+02 -0.32427288367E+01  0.73013013200E+02  0.74248276244E+02  0.10566000000E+00 0. -1.
        994    1    1    2    0    0  0.11529952267E+00  0.25090384469E+01  0.13533416255E+01  0.17122377201E+03  0.17120000000E+03 0.  0.
        998    1    1    2    0    0  0.12975917924E+02  0.73369038979E+00  0.14256336415E+04  0.14257279517E+04  0.10000000000E+02 0. -1.
</event>
<event>
 5    1  0.1533416E-008  0.3781411E+03  0.7957747E-01  0.3459293E+00
         13   -1    0    0    0    0  0.00000000000E+00  0.00000000000E+00  0.14999999963E+04  0.15000000000E+04  0.10566000000E+00 0.  1.
        994   -1    0    0    0    0 -0.00000000000E+00 -0.00000000000E+00  0.11368683772E-12  0.17120000000E+03  0.17120000000E+03 0.  0.
         13    1    1    2    0    0  0.56222352140E+02 -0.43173181951E+02  0.36269477664E+03  0.36955701683E+03  0.10566000000E+00 0.  1.
        994    1    1    2    0    0 -0.57959171050E+02  0.46098779680E+02  0.23749092190E+02  0.18803675805E+03  0.17120000000E+03 0.  0.
        998    1    1    2    0    0  0.17368189096E+01 -0.29255977283E+01  0.11135561274E+04  0.11136062251E+04  0.10000000000E+02 0.  1.
</event>
<event>
 5    1  0.1533416E-008  0.3818188E+03  0.7957747E-01  0.3443277E+00
         13   -1    0    0    0    0  0.00000000000E+00  0.00000000000E+00  0.14999999963E+04  0.15000000000E+04  0.10566000000E+00 0. -1.
        994   -1    0    0    0    0 -0.00000000000E+00 -0.00000000000E+00  0.11368683772E-12  0.17120000000E+03  0.17120000000E+03 0.  0.
         13    1    1    2    0    0  0.20612176626E+02 -0.14581112795E+02  0.10551657461E+02  0.27364563121E+02  0.10566000000E+00 0. -1.
        994    1    1    2    0    0 -0.28448425184E+02  0.17275575265E+02  0.21381361717E+02  0.17571101566E+03  0.17120000000E+03 0.  0.
        998    1    1    2    0    0  0.78362485579E+01 -0.26944624706E+01  0.14680669771E+04  0.14681244212E+04  0.10000000000E+02 0. -1.
</event>
<event>
 5    1  0.1533416E-008  0.3821686E+03  0.7957747E-01  0.3441770E+00
         13   -1    0    0    0    0  0.00000000000E+00  0.00000000000E+00  0.14999999963E+04  0.15000000000E+04  0.10566000000E+00 0. -1.
        994   -1    0    0    0    0 -0.00000000000E+00 -0.00000000000E+00  0.11368683772E-12  0.17120000000E+03  0.17120000000E+03 0.  0.
         13    1    1    2    0    0 -0.66862857541E+00 -0.19037482604E+02  0.64173866437E+02  0.66941534980E+02  0.10566000000E+00 0. -1.
        994    1    1    2    0    0 -0.11587967554E+02 -0.59602238810E+01  0.36062182899E+01  0.17173307798E+03  0.17120000000E+03 0.  0.
        998    1    1    2    0    0  0.12256596129E+02  0.24997706485E+02  0.14322199116E+04  0.14325253870E+04  0.10000000000E+02 0. -1.
</event>
<event>
 5    1  0.1533416E-008  0.3728872E+03  0.7957747E-01  0.3482726E+00
         13   -1    0    0    0    0  0.00000000000E+00  0.00000000000E+00  0.14999999963E+04  0.15000000000E+04  0.10566000000E+00 0. -1.
        994   -1    0    0    0    0 -0.00000000000E+00 -0.00000000000E+00  0.11368683772E-12  0.17120000000E+03  0.17120000000E+03 0.  0.
         13    1    1    2    0    0  0.35314384641E+02  0.61818213589E+01  0.79912002305E+02  0.87585729170E+02  0.10566000000E+00 0. -1.
        994    1    1    2    0    0 -0.16717050056E+02 -0.36472712762E+02  0.13298848336E+02  0.17634063033E+03  0.17120000000E+03 0.  0.
        998    1    1    2    0    0 -0.18597334585E+02  0.30290891403E+02  0.14067891456E+04  0.14072736405E+04  0.10000000000E+02 0. -1.
</event>
<event>
 5    1  0.1533416E-008  0.3848000E+03  0.7957747E-01  0.3430521E+00
         13   -1    0    0    0    0  0.00000000000E+00  0.00000000000E+00  0.14999999963E+04  0.15000000000E+04  0.10566000000E+00 0. -1.
        994   -1    0    0    0    0 -0.00000000000E+00 -0.00000000000E+00  0.11368683772E-12  0.17120000000E+03  0.17120000000E+03 0.  0.
         13    1    1    2    0    0 -0.26656576292E+01 -0.11640865262E+02  0.39607893762E+02  0.41369214242E+02  0.10566000000E+00 0. -1.
        994    1    1    2    0    0  0.52398154637E+01  0.14471511737E+02  0.25093801582E+01  0.17190874703E+03  0.17120000000E+03 0.  0.
        998    1    1    2    0    0 -0.25741578345E+01 -0.28306464749E+01  0.14578827224E+04  0.14579220387E+04  0.10000000000E+02 0. -1.
</event>
<event>
 5    1  0.1533416E-008  0.3798639E+03  0.7957747E-01  0.3451751E+00
         13   -1    0    0    0    0  0.00000000000E+00  0.00000000000E+00  0.14999999963E+04  0.15000000000E+04  0.10566000000E+00 0.  1.
        994   -1    0    0    0    0 -0.00000000000E+00 -0.00000000000E+00  0.11368683772E-12  0.17120000000E+03  0.17120000000E+03 0.  0.
         13    1    1    2    0    0  0.31935212599E+01 -0.13103479758E+02  0.19806268775E+02  0.23962454103E+02  0.10566000000E+00 0.  1.
        994    1    1    2    0    0 -0.55572818254E+01  0.10006928626E+02  0.46401717818E+01  0.17164496263E+03  0.17120000000E+03 0.  0.
        998    1    1    2    0    0  0.23637605655E+01  0.30965511318E+01  0.14755535557E+04  0.14755925833E+04  0.10000000000E+02 0.  1.
</event>
<event>
 5    1  0.1533416E-008  0.3814393E+03  0.7957747E-01  0.3444915E+00
         13   -1    0    0    0    0  0.00000000000E+00  0.00000000000E+00  0.14999999963E+04  0.15000000000E+04  0.10566000000E+00 0.  1.
        994   -1    0    0    0    0 -0.00000000000E+00 -0.00000000000E+00  0.11368683772E-12  0.17120000000E+03  0.17120000000E+03 0.  0.
         13    1    1    2    0    0 -0.17131147158E+02 -0.16686987909E+02  0.94158420418E+02  0.97148088340E+02  0.10566000000E+00 0.  1.
        994    1    1    2    0    0 -0.58901320178E+01 -0.60615220222E+01  0.36460538014E+01  0.17144727881E+03  0.17120000000E+03 0.  0.
        998    1    1    2    0    0  0.23021279176E+02  0.22748509931E+02  0.14021955221E+04  0.14026046328E+04  0.10000000000E+02 0.  1.
</event>
<event>
 5    1  0.1533416E-008  0.3789260E+03  0.7957747E-01  0.3455848E+00
         13   -1    0    0    0    0  0.00000000000E+00  0.00000000000E+00  0.14999999963E+04  0.15000000000E+04  0.10566000000E+00 0.  1.
        994   -1    0    0    0    0 -0.00000000000E+00 -0.00000000000E+00  0.11368683772E-12  0.17120000000E+03  0.17120000000E+03 0.  0.
         13    1    1    2    0    0 -0.38582473323E+02 -0.10650698841E+02  0.15540504124E+03  0.16047673551E+03  0.10566000000E+00 0.  1.
        994    1    1    2    0    0  0.36123768351E+02  0.12014972741E+02  0.95537867991E+01  0.17564168370E+03  0.17120000000E+03 0.  0.
        998    1    1    2    0    0  0.24587049717E+01 -0.13642739004E+01  0.13350411682E+04  0.13350815808E+04  0.10000000000E+02 0.  1.
</event>
<event>
 5    1  0.1533416E-008  0.3837050E+03  0.7957747E-01  0.3435183E+00
         13   -1    0    0    0    0  0.00000000000E+00  0.00000000000E+00  0.14999999963E+04  0.15000000000E+04  0.10566000000E+00 0.  1.
        994   -1    0    0    0    0 -0.00000000000E+00 -0.00000000000E+00  0.11368683772E-12  0.17120000000E+03  0.17120000000E+03 0.  0.
         13    1    1    2    0    0  0.14561211419E+02  0.41119528654E+01  0.54409447092E+02  0.56474207664E+02  0.10566000000E+00 0.  1.
        994    1    1    2    0    0  0.86057174718E+01 -0.24110524628E+01  0.25382540872E+01  0.17145190078E+03  0.17120000000E+03 0.  0.
        998    1    1    2    0    0 -0.23166928891E+02 -0.17009004027E+01  0.14430522951E+04  0.14432738916E+04  0.10000000000E+02 0.  1.
</event>
<event>
 5    1  0.1533416E-008  0.3746714E+03  0.7957747E-01  0.3474694E+00
         13   -1    0    0    0    0  0.00000000000E+00  0.00000000000E+00  0.14999999963E+04  0.15000000000E+04  0.10566000000E+00 0.  1.
        994   -1    0    0    0    0 -0.00000000000E+00 -0.00000000000E+00  0.11368683772E-12  0.17120000000E+03  0.17120000000E+03 0.  0.
         13    1    1    2    0    0  0.31870696245E+02  0.11635245379E+03  0.39395214777E+03  0.41200963663E+03  0.10566000000E+00 0.  1.
        994    1    1    2    0    0 -0.46472371967E+02 -0.10930954205E+03  0.65433290866E+02  0.21840149471E+03  0.17120000000E+03 0.  0.
        998    1    1    2    0    0  0.14601675722E+02 -0.70429117424E+01  0.10406145576E+04  0.10407888687E+04  0.10000000000E+02 0.  1.
</event>
<event>
 5    1  0.1533416E-008  0.3693941E+03  0.7957747E-01  0.3498680E+00
         13   -1    0    0    0    0  0.00000000000E+00  0.00000000000E+00  0.14999999963E+04  0.15000000000E+04  0.10566000000E+00 0. -1.
        994   -1    0    0    0    0 -0.00000000000E+00 -0.00000000000E+00  0.11368683772E-12  0.17120000000E+03  0.17120000000E+03 0.  0.
         13    1    1    2    0    0 -0.18995683964E+02 -0.11067044797E+03  0.64716753991E+03  0.65683682901E+03  0.10566000000E+00 0. -1.
        994    1    1    2    0    0  0.14744822708E+01  0.68370378797E+02  0.25969748061E+02  0.18617344228E+03  0.17120000000E+03 0.  0.
        998    1    1    2    0    0  0.17521201693E+02  0.42300069171E+02  0.82686270831E+03  0.82818972871E+03  0.10000000000E+02 0. -1.
</event>
<event>
 5    1  0.1533416E-008  0.3703603E+03  0.7957747E-01  0.3494237E+00
         13   -1    0    0    0    0  0.00000000000E+00  0.00000000000E+00  0.14999999963E+04  0.15000000000E+04  0.10566000000E+00 0.  1.
        994   -1    0    0    0    0 -0.00000000000E+00 -0.00000000000E+00  0.11368683772E-12  0.17120000000E+03  0.17120000000E+03 0.  0.
         13    1    1    2    0    0 -0.10481120941E+02 -0.59825746663E+02  0.20919589857E+03  0.21783459092E+03  0.10566000000E+00 0.  1.
        994    1    1    2    0    0  0.29327489358E+02  0.23323153872E+02  0.13945156599E+02  0.17580665099E+03  0.17120000000E+03 0.  0.
        998    1    1    2    0    0 -0.18846368417E+02  0.36502592791E+02  0.12768589411E+04  0.12775587581E+04  0.10000000000E+02 0.  1.
</event>
<event>
 5    1  0.1533416E-008  0.3826601E+03  0.7957747E-01  0.3439657E+00
         13   -1    0    0    0    0  0.00000000000E+00  0.00000000000E+00  0.14999999963E+04  0.15000000000E+04  0.10566000000E+00 0.  1.
        994   -1    0    0    0    0 -0.00000000000E+00 -0.00000000000E+00  0.11368683772E-12  0.17120000000E+03  0.17120000000E+03 0.  0.
         13    1    1    2    0    0 -0.16344308134E+02  0.17685549756E+02  0.12581323582E+03  0.12809721523E+03  0.10566000000E+00 0.  1.
        994    1    1    2    0    0 -0.50747031453E+01  0.13623282396E+02  0.34969880824E+01  0.17185172493E+03  0.17120000000E+03 0.  0.
        998    1    1    2    0    0  0.21419011280E+02 -0.31308832152E+02  0.13706897724E+04  0.13712510598E+04  0.10000000000E+02 0.  1.
</event>
<event>
 5    1  0.1533416E-008  0.3685152E+03  0.7957747E-01  0.3502743E+00
         13   -1    0    0    0    0  0.00000000000E+00  0.00000000000E+00  0.14999999963E+04  0.15000000000E+04  0.10566000000E+00 0. -1.
        994   -1    0    0    0    0 -0.00000000000E+00 -0.00000000000E+00  0.11368683772E-12  0.17120000000E+03  0.17120000000E+03 0.  0.
         13    1    1    2    0    0  0.18496587340E+02  0.14935461407E+02  0.23179824674E+02  0.33204023651E+02  0.10566000000E+00 0. -1.
        994    1    1    2    0    0 -0.17445323617E+02 -0.16406278806E+02  0.12152955198E+02  0.17329350715E+03  0.17120000000E+03 0.  0.
        998    1    1    2    0    0 -0.10512637228E+01  0.14708173987E+01  0.14646672164E+04  0.14647024692E+04  0.10000000000E+02 0. -1.
</event>
<event>
 5    1  0.1533416E-008  0.3754983E+03  0.7957747E-01  0.3470997E+00
         13   -1    0    0    0    0  0.00000000000E+00  0.00000000000E+00  0.14999999963E+04  0.15000000000E+04  0.10566000000E+00 0.  1.
        994   -1    0    0    0    0 -0.00000000000E+00 -0.00000000000E+00  0.11368683772E-12  0.17120000000E+03  0.17120000000E+03 0.  0.
         13    1    1    2    0    0  0.34837771590E+02 -0.11766839515E+03  0.71053093578E+03  0.72105044443E+03  0.10566000000E+00 0.  1.
        994    1    1    2    0    0 -0.89843731789E+02  0.10045356602E+03  0.70788641807E+02  0.22909231082E+03  0.17120000000E+03 0.  0.
        998    1    1    2    0    0  0.55005960199E+02  0.17214829135E+02  0.71868041869E+03  0.72105724475E+03  0.10000000000E+02 0.  1.
</event>
<event>
 5    1  0.1533416E-008  0.3830632E+03  0.7957747E-01  0.3437928E+00
         13   -1    0    0    0    0  0.00000000000E+00  0.00000000000E+00  0.14999999963E+04  0.15000000000E+04  0.10566000000E+00 0.  1.
        994   -1    0    0    0    0 -0.00000000000E+00 -0.00000000000E+00  0.11368683772E-12  0.17120000000E+03  0.17120000000E+03 0.  0.
         13    1    1    2    0    0 -0.19371188820E+02  0.74223189591E+01  0.85889386779E+02  0.88359106494E+02  0.10566000000E+00 0.  1.
        994    1    1    2    0    0  0.28262832686E+01 -0.85363715909E+01  0.28624439022E+01  0.17145988190E+03  0.17120000000E+03 0.  0.
        998    1    1    2    0    0  0.16544905551E+02  0.11140526318E+01  0.14112481656E+04  0.14113810116E+04  0.10000000000E+02 0.  1.
</event>
<event>
 5    1  0.1533416E-008  0.3790135E+03  0.7957747E-01  0.3455465E+00
         13   -1    0    0    0    0  0.00000000000E+00  0.00000000000E+00  0.14999999963E+04  0.15000000000E+04  0.10566000000E+00 0. -1.
        994   -1    0    0    0    0 -0.00000000000E+00 -0.00000000000E+00  0.11368683772E-12  0.17120000000E+03  0.17120000000E+03 0.  0.
         13    1    1    2    0    0  0.30817768237E+02 -0.17002702742E+02  0.13217586251E+03  0.13678193058E+03  0.10566000000E+00 0. -1.
        994    1    1    2    0    0 -0.12328838138E+02  0.21078314141E+02  0.66344186864E+01  0.17305996385E+03  0.17120000000E+03 0.  0.
        998    1    1    2    0    0 -0.18488930099E+02 -0.40756113994E+01  0.13611897151E+04  0.13613581056E+04  0.10000000000E+02 0. -1.
</event>
<event>
 5    1  0.1533416E-008  0.3797322E+03  0.7957747E-01  0.3452325E+00
         13   -1    0    0    0    0  0.00000000000E+00  0.00000000000E+00  0.14999999963E+04  0.15000000000E+04  0.10566000000E+00 0. -1.
        994   -1    0    0    0    0 -0.00000000000E+00 -0.00000000000E+00  0.11368683772E-12  0.17120000000E+03  0.17120000000E+03 0.  0.
         13    1    1    2    0    0 -0.26015805503E+02 -0.60460790430E+02  0.37952393995E+03  0.38518925411E+03  0.10566000000E+00 0. -1.
        994    1    1    2    0    0  0.29163924740E+02  0.59048988573E+02  0.18919778367E+02  0.18440367559E+03  0.17120000000E+03 0.  0.
        998    1    1    2    0    0 -0.31481192366E+01  0.14118018566E+01  0.11015562780E+04  0.11016070703E+04  0.10000000000E+02 0.  0.
</event>
<event>
 5    1  0.1533416E-008  0.3686888E+03  0.7957747E-01  0.3501939E+00
         13   -1    0    0    0    0  0.00000000000E+00  0.00000000000E+00  0.14999999963E+04  0.15000000000E+04  0.10566000000E+00 0.  1.
        994   -1    0    0    0    0 -0.00000000000E+00 -0.00000000000E+00  0.11368683772E-12  0.17120000000E+03  0.17120000000E+03 0.  0.
         13    1    1    2    0    0  0.84202273373E+02  0.19162064416E+01  0.36388433795E+03  0.37350437381E+03  0.10566000000E+00 0.  1.
        994    1    1    2    0    0 -0.45850455531E+02  0.24358720868E+02  0.19377988265E+02  0.17994598630E+03  0.17120000000E+03 0.  0.
        998    1    1    2    0    0 -0.38351817842E+02 -0.26274927310E+02  0.11167376701E+04  0.11177496399E+04  0.10000000000E+02 0.  1.
</event>
<event>
 5    1  0.1533416E-008  0.3806517E+03  0.7957747E-01  0.3448326E+00
         13   -1    0    0    0    0  0.00000000000E+00  0.00000000000E+00  0.14999999963E+04  0.15000000000E+04  0.10566000000E+00 0. -1.
        994   -1    0    0    0    0 -0.00000000000E+00 -0.00000000000E+00  0.11368683772E-12  0.17120000000E+03  0.17120000000E+03 0.  0.
         13    1    1    2    0    0 -0.65279200994E+01  0.17961936727E+02  0.47514027219E+02  0.51213658905E+02  0.10566000000E+00 0. -1.
        994    1    1    2    0    0  0.37516844158E+01 -0.65529360659E+01  0.39947285715E+01  0.17141299240E+03  0.17120000000E+03 0.  0.
        998    1    1    2    0    0  0.27762356836E+01 -0.11409000661E+02  0.14484912405E+04  0.14485733487E+04  0.10000000000E+02 0. -1.
</event>
<event>
 5    1  0.1533416E-008  0.3826975E+03  0.7957747E-01  0.3439496E+00
         13   -1    0    0    0    0  0.00000000000E+00  0.00000000000E+00  0.14999999963E+04  0.15000000000E+04  0.10566000000E+00 0.  1.
        994   -1    0    0    0    0 -0.00000000000E+00 -0.00000000000E+00  0.11368683772E-12  0.17120000000E+03  0.17120000000E+03 0.  0.
         13    1    1    2    0    0 -0.10077030718E+02 -0.18820683576E+02  0.81069880929E+02  0.83833772647E+02  0.10566000000E+00 0.  1.
        994    1    1    2    0    0  0.13507326036E+02  0.84552025411E+01  0.36194629956E+01  0.17197813471E+03  0.17120000000E+03 0.  0.
        998    1    1    2    0    0 -0.34302953186E+01  0.10365481035E+02  0.14153106524E+04  0.14153880926E+04  0.10000000000E+02 0.  1.
</event>
<event>
 5    1  0.1533416E-008  0.3880718E+03  0.7957747E-01  0.3416748E+00
         13   -1    0    0    0    0  0.00000000000E+00  0.00000000000E+00  0.14999999963E+04  0.15000000000E+04  0.10566000000E+00 0. -1.
        994   -1    0    0    0    0 -0.00000000000E+00 -0.00000000000E+00  0.11368683772E-12  0.17120000000E+03  0.17120000000E+03 0.  0.
         13    1    1    2    0    0 -0.17340669720E+02  0.20608404029E+02  0.83609546081E+01  0.28201451539E+02  0.10566000000E+00 0. -1.
        994    1    1    2    0    0  0.18533072200E+02 -0.21207768276E+02  0.23801373664E+02  0.17512621046E+03  0.17120000000E+03 0.  0.
        998    1    1    2    0    0 -0.11924024802E+01  0.59936424778E+00  0.14678376680E+04  0.14678723380E+04  0.10000000000E+02 0. -1.
</event>
<event>
 5    1  0.1533416E-008  0.3851221E+03  0.7957747E-01  0.3429155E+00
         13   -1    0    0    0    0  0.00000000000E+00  0.00000000000E+00  0.14999999963E+04  0.15000000000E+04  0.10566000000E+00 0. -1.
        994   -1    0    0    0    0 -0.00000000000E+00 -0.00000000000E+00  0.11368683772E-12  0.17120000000E+03  0.17120000000E+03 0.  0.
         13    1    1    2    0    0  0.91517863698E+01 -0.43475674676E+01  0.32522415798E+02  0.34064280853E+02  0.10566000000E+00 0. -1.
        994    1    1    2    0    0 -0.73037246581E+01  0.11082887551E+01  0.17489517564E+01  0.17136823373E+03  0.17120000000E+03 0.  0.
        998    1    1    2    0    0 -0.18480617118E+01  0.32392787125E+01  0.14657286287E+04  0.14657674854E+04  0.10000000000E+02 0. -1.
</event>
<event>
 5    1  0.1533416E-008  0.3768532E+03  0.7957747E-01  0.3464976E+00
         13   -1    0    0    0    0  0.00000000000E+00  0.00000000000E+00  0.14999999963E+04  0.15000000000E+04  0.10566000000E+00 0. -1.
        994   -1    0    0    0    0 -0.00000000000E+00 -0.00000000000E+00  0.11368683772E-12  0.17120000000E+03  0.17120000000E+03 0.  0.
         13    1    1    2    0    0  0.39018981005E+01 -0.17966309229E+02  0.25505807654E+02  0.31441540424E+02  0.10566000000E+00 0. -1.
        994    1    1    2    0    0 -0.28384259140E+01  0.35565037429E+02  0.10042245664E+02  0.17516625031E+03  0.17120000000E+03 0.  0.
        998    1    1    2    0    0 -0.10634721865E+01 -0.17598728200E+02  0.14644519430E+04  0.14645922093E+04  0.10000000000E+02 0. -1.
</event>
<event>
 5    1  0.1533416E-008  0.3862209E+03  0.7957747E-01  0.3424511E+00
         13   -1    0    0    0    0  0.00000000000E+00  0.00000000000E+00  0.14999999963E+04  0.15000000000E+04  0.10566000000E+00 0.  1.
        994   -1    0    0    0    0 -0.00000000000E+00 -0.00000000000E+00  0.11368683772E-12  0.17120000000E+03  0.17120000000E+03 0.  0.
         13    1    1    2    0    0  0.46721224094E+00 -0.11535447304E+02  0.67256526938E+02  0.68240284375E+02  0.10566000000E+00 0.  1.
        994    1    1    2    0    0  0.62094108099E+01  0.57208564076E+01  0.12587481362E+01  0.17141268748E+03  0.17120000000E+03 0.  0.
        998    1    1    2    0    0 -0.66766230509E+01  0.58145908959E+01  0.14314847212E+04  0.14315470281E+04  0.10000000000E+02 0.  1.
</event>
<event>
 5    1  0.1533416E-008  0.3761766E+03  0.7957747E-01  0.3467977E+00
         13   -1    0    0    0    0  0.00000000000E+00  0.00000000000E+00  0.14999999963E+04  0.15000000000E+04  0.10566000000E+00 0.  1.
        994   -1    0    0    0    0 -0.00000000000E+00 -0.00000000000E+00  0.11368683772E-12  0.17120000000E+03  0.17120000000E+03 0.  0.
         13    1    1    2    0    0 -0.22211167447E+02 -0.37901846224E+01  0.39225965153E+02  0.45237030904E+02  0.10566000000E+00 0.  1.
        994    1    1    2    0    0  0.18580183564E+02 -0.12815093277E+02  0.78025487594E+01  0.17285765706E+03  0.17120000000E+03 0.  0.
        998    1    1    2    0    0  0.36309838832E+01  0.16605277900E+02  0.14529714824E+04  0.14531053120E+04  0.10000000000E+02 0.  1.
</event>
<event>
 5    1  0.1533416E-008  0.4438124E+03  0.7957747E-01  0.3213062E+00
         13   -1    0    0    0    0  0.00000000000E+00  0.00000000000E+00  0.14999999963E+04  0.15000000000E+04  0.10566000000E+00 0.  1.
        994   -1    0    0    0    0 -0.00000000000E+00 -0.00000000000E+00  0.11368683772E-12  0.17120000000E+03  0.17120000000E+03 0.  0.
         13    1    1    2    0    0  0.79183784369E+02 -0.58802320921E+02  0.65441401581E+02  0.11836542087E+03  0.10566000000E+00 0.  1.
        994    1    1    2    0    0 -0.74842703949E+02  0.66308525439E+02  0.10715712778E+03  0.22536712474E+03  0.17120000000E+03 0.  0.
        998    1    1    2    0    0 -0.43410804201E+01 -0.75062045177E+01  0.13274014669E+04  0.13274674544E+04  0.10000000000E+02 0.  1.
</event>
<event>
 5    1  0.1533416E-008  0.3693743E+03  0.7957747E-01  0.3498771E+00
         13   -1    0    0    0    0  0.00000000000E+00  0.00000000000E+00  0.14999999963E+04  0.15000000000E+04  0.10566000000E+00 0. -1.
        994   -1    0    0    0    0 -0.00000000000E+00 -0.00000000000E+00  0.11368683772E-12  0.17120000000E+03  0.17120000000E+03 0.  0.
         13    1    1    2    0    0 -0.60591075394E+02  0.12200285510E+03  0.59909733172E+03  0.61438880125E+03  0.10566000000E+00 0. -1.
        994    1    1    2    0    0  0.68271729707E+02 -0.10943633049E+03  0.69673114477E+02  0.22539104327E+03  0.17120000000E+03 0.  0.
        998    1    1    2    0    0 -0.76806543129E+01 -0.12566524614E+02  0.83122955009E+03  0.83142015547E+03  0.10000000000E+02 0. -1.
</event>
<event>
 5    1  0.1533416E-008  0.3760285E+03  0.7957747E-01  0.3468636E+00
         13   -1    0    0    0    0  0.00000000000E+00  0.00000000000E+00  0.14999999963E+04  0.15000000000E+04  0.10566000000E+00 0.  1.
        994   -1    0    0    0    0 -0.00000000000E+00 -0.00000000000E+00  0.11368683772E-12  0.17120000000E+03  0.17120000000E+03 0.  0.
         13    1    1    2    0    0 -0.37274315330E+01 -0.13196998616E+02  0.12459517394E+02  0.18528498483E+02  0.10566000000E+00 0.  1.
        994    1    1    2    0    0 -0.28230499562E+01  0.14610883949E+02  0.69019945825E+01  0.17198408377E+03  0.17120000000E+03 0.  0.
        998    1    1    2    0    0  0.65504814892E+01 -0.14138853331E+01  0.14806384843E+04  0.14806874177E+04  0.10000000000E+02 0.  1.
</event>
<event>
 5    1  0.1533416E-008  0.3823123E+03  0.7957747E-01  0.3441151E+00
         13   -1    0    0    0    0  0.00000000000E+00  0.00000000000E+00  0.14999999963E+04  0.15000000000E+04  0.10566000000E+00 0. -1.
        994   -1    0    0    0    0 -0.00000000000E+00 -0.00000000000E+00  0.11368683772E-12  0.17120000000E+03  0.17120000000E+03 0.  0.
         13    1    1    2    0    0 -0.93950785254E+01  0.11208233264E+02  0.33782407451E+02  0.36812419245E+02  0.10566000000E+00 0. -1.
        994    1    1    2    0    0  0.17776527768E+02 -0.10337112410E+02  0.43745474474E+01  0.17248605015E+03  0.17120000000E+03 0.  0.
        998    1    1    2    0    0 -0.83814492425E+01 -0.87112085428E+00  0.14618430414E+04  0.14619015306E+04  0.10000000000E+02 0. -1.
</event>
<event>
 5    1  0.1533416E-008  0.3838835E+03  0.7957747E-01  0.3434421E+00
         13   -1    0    0    0    0  0.00000000000E+00  0.00000000000E+00  0.14999999963E+04  0.15000000000E+04  0.10566000000E+00 0. -1.
        994   -1    0    0    0    0 -0.00000000000E+00 -0.00000000000E+00  0.11368683772E-12  0.17120000000E+03  0.17120000000E+03 0.  0.
         13    1    1    2    0    0  0.77135734138E+01 -0.12674900130E+02  0.50189840136E+02  0.52337209756E+02  0.10566000000E+00 0. -1.
        994    1    1    2    0    0 -0.40383476403E+01  0.74716277605E+01  0.24236026714E+01  0.17142767374E+03  0.17120000000E+03 0.  0.
        998    1    1    2    0    0 -0.36752257735E+01  0.52032723696E+01  0.14473865535E+04  0.14474351165E+04  0.10000000000E+02 0. -1.
</event>
<event>
 5    1  0.1533416E-008  0.3771249E+03  0.7957747E-01  0.3463774E+00
         13   -1    0    0    0    0  0.00000000000E+00  0.00000000000E+00  0.14999999963E+04  0.15000000000E+04  0.10566000000E+00 0.  1.
        994   -1    0    0    0    0 -0.00000000000E+00 -0.00000000000E+00  0.11368683772E-12  0.17120000000E+03  0.17120000000E+03 0.  0.
         13    1    1    2    0    0 -0.12472795347E+01  0.28653799230E+02  0.71632063448E+02  0.77160609086E+02  0.10566000000E+00 0.  1.
        994    1    1    2    0    0  0.17068936190E+02 -0.16921545666E+02  0.75436999283E+01  0.17304344743E+03  0.17120000000E+03 0.  0.
        998    1    1    2    0    0 -0.15821656656E+02 -0.11732253564E+02  0.14208242329E+04  0.14209959435E+04  0.10000000000E+02 0.  1.
</event>
<event>
 5    1  0.1533416E-008  0.3724410E+03  0.7957747E-01  0.3484747E+00
         13   -1    0    0    0    0  0.00000000000E+00  0.00000000000E+00  0.14999999963E+04  0.15000000000E+04  0.10566000000E+00 0. -1.
        994   -1    0    0    0    0 -0.00000000000E+00 -0.00000000000E+00  0.11368683772E-12  0.17120000000E+03  0.17120000000E+03 0.  0.
         13    1    1    2    0    0  0.41368244241E+02 -0.10074270318E+03  0.33798485200E+03  0.35509744468E+03  0.10566000000E+00 0. -1.
        994    1    1    2    0    0  0.80704520001E+01  0.13639312048E+03  0.81323982979E+02  0.23364769573E+03  0.17120000000E+03 0.  0.
        998    1    1    2    0    0 -0.49438696241E+02 -0.35650417307E+02  0.10806911613E+04  0.10824548596E+04  0.10000000000E+02 0. -1.
</event>
<event>
 5    1  0.1533416E-008  0.3854257E+03  0.7957747E-01  0.3427869E+00
         13   -1    0    0    0    0  0.00000000000E+00  0.00000000000E+00  0.14999999963E+04  0.15000000000E+04  0.10566000000E+00 0. -1.
        994   -1    0    0    0    0 -0.00000000000E+00 -0.00000000000E+00  0.11368683772E-12  0.17120000000E+03  0.17120000000E+03 0.  0.
         13    1    1    2    0    0  0.11980181545E+02  0.69625708079E+01  0.64791712648E+02  0.66256919140E+02  0.10566000000E+00 0. -1.
        994    1    1    2    0    0 -0.13762488800E+02 -0.86916945098E+01  0.22895546633E+01  0.17198730683E+03  0.17120000000E+03 0.  0.
        998    1    1    2    0    0  0.17823072555E+01  0.17291237018E+01  0.14329187290E+04  0.14329557740E+04  0.10000000000E+02 0. -1.
</event>
<event>
 5    1  0.1533416E-008  0.3693728E+03  0.7957747E-01  0.3498779E+00
         13   -1    0    0    0    0  0.00000000000E+00  0.00000000000E+00  0.14999999963E+04  0.15000000000E+04  0.10566000000E+00 0.  1.
        994   -1    0    0    0    0 -0.00000000000E+00 -0.00000000000E+00  0.11368683772E-12  0.17120000000E+03  0.17120000000E+03 0.  0.
         13    1    1    2    0    0  0.23208695361E+02 -0.42302084692E+02  0.11103128121E+03  0.12106224218E+03  0.10566000000E+00 0.  1.
        994    1    1    2    0    0 -0.21555901763E+02  0.40177921061E+02  0.16835778956E+02  0.17796574304E+03  0.17120000000E+03 0.  0.
        998    1    1    2    0    0 -0.16527935982E+01  0.21241636312E+01  0.13721329361E+04  0.13721720148E+04  0.10000000000E+02 0.  1.
</event>
<event>
 5    1  0.1533416E-008  0.3855771E+03  0.7957747E-01  0.3427229E+00
         13   -1    0    0    0    0  0.00000000000E+00  0.00000000000E+00  0.14999999963E+04  0.15000000000E+04  0.10566000000E+00 0. -1.
        994   -1    0    0    0    0 -0.00000000000E+00 -0.00000000000E+00  0.11368683772E-12  0.17120000000E+03  0.17120000000E+03 0.  0.
         13    1    1    2    0    0  0.88767277715E+01  0.10359786645E+02  0.61942569711E+02  0.63427238484E+02  0.10566000000E+00 0. -1.
        994    1    1    2    0    0 -0.28887111933E+02 -0.10822076727E+02  0.44737352216E+01  0.17401447321E+03  0.17120000000E+03 0.  0.
        998    1    1    2    0    0  0.20010384161E+02  0.46229008127E+00  0.14335836913E+04  0.14337582883E+04  0.10000000000E+02 0. -1.
</event>
<event>
 5    1  0.1533416E-008  0.3789913E+03  0.7957747E-01  0.3455562E+00
         13   -1    0    0    0    0  0.00000000000E+00  0.00000000000E+00  0.14999999963E+04  0.15000000000E+04  0.10566000000E+00 0. -1.
        994   -1    0    0    0    0 -0.00000000000E+00 -0.00000000000E+00  0.11368683772E-12  0.17120000000E+03  0.17120000000E+03 0.  0.
         13    1    1    2    0    0  0.28510246702E+02 -0.65723318427E+02  0.40129906339E+03  0.40764364118E+03  0.10566000000E+00 0. -1.
        994    1    1    2    0    0 -0.70353628838E+02  0.52878112293E+02  0.31078020872E+02  0.19498977212E+03  0.17120000000E+03 0.  0.
        998    1    1    2    0    0  0.41843382136E+02  0.12845206134E+02  0.10676229120E+04  0.10685665867E+04  0.10000000000E+02 0. -1.
</event>
<event>
 5    1  0.1533416E-008  0.3846541E+03  0.7957747E-01  0.3431141E+00
         13   -1    0    0    0    0  0.00000000000E+00  0.00000000000E+00  0.14999999963E+04  0.15000000000E+04  0.10566000000E+00 0. -1.
        994   -1    0    0    0    0 -0.00000000000E+00 -0.00000000000E+00  0.11368683772E-12  0.17120000000E+03  0.17120000000E+03 0.  0.
         13    1    1    2    0    0 -0.37105922296E+01 -0.19504550321E+02  0.11749107757E+03  0.11915687329E+03  0.10566000000E+00 0. -1.
        994    1    1    2    0    0 -0.12623468672E+02  0.64585146323E+01  0.24642279127E+01  0.17180389050E+03  0.17120000000E+03 0.  0.
        998    1    1    2    0    0  0.16334060902E+02  0.13046035689E+02  0.13800446908E+04  0.13802392362E+04  0.10000000000E+02 0. -1.
</event>
<event>
 5    1  0.1533416E-008  0.3763291E+03  0.7957747E-01  0.3467300E+00
         13   -1    0    0    0    0  0.00000000000E+00  0.00000000000E+00  0.14999999963E+04  0.15000000000E+04  0.10566000000E+00 0.  1.
        994   -1    0    0    0    0 -0.00000000000E+00 -0.00000000000E+00  0.11368683772E-12  0.17120000000E+03  0.17120000000E+03 0.  0.
         13    1    1    2    0    0  0.27950937489E+01  0.49337420380E+02  0.18613864486E+03  0.19258660357E+03  0.10566000000E+00 0.  1.
        994    1    1    2    0    0 -0.11421652004E+02 -0.41524455345E+02  0.12300177106E+02  0.17696177238E+03  0.17120000000E+03 0.  0.
        998    1    1    2    0    0  0.86265582550E+01 -0.78129650347E+01  0.13015611743E+04  0.13016516241E+04  0.10000000000E+02 0.  1.
</event>
<event>
 5    1  0.1533416E-008  0.3764138E+03  0.7957747E-01  0.3466924E+00
         13   -1    0    0    0    0  0.00000000000E+00  0.00000000000E+00  0.14999999963E+04  0.15000000000E+04  0.10566000000E+00 0. -1.
        994   -1    0    0    0    0 -0.00000000000E+00 -0.00000000000E+00  0.11368683772E-12  0.17120000000E+03  0.17120000000E+03 0.  0.
         13    1    1    2    0    0 -0.21074561932E+02  0.63624741596E+01  0.37086645427E+02  0.43128281570E+02  0.10566000000E+00 0. -1.
        994    1    1    2    0    0  0.26224922874E+02 -0.21364910439E+01  0.83001533553E+01  0.17340889170E+03  0.17120000000E+03 0.  0.
        998    1    1    2    0    0 -0.51503609412E+01 -0.42259831157E+01  0.14546131975E+04  0.14546628267E+04  0.10000000000E+02 0. -1.
</event>
<event>
 5    1  0.1533416E-008  0.3708351E+03  0.7957747E-01  0.3492062E+00
         13   -1    0    0    0    0  0.00000000000E+00  0.00000000000E+00  0.14999999963E+04  0.15000000000E+04  0.10566000000E+00 0. -1.
        994   -1    0    0    0    0 -0.00000000000E+00 -0.00000000000E+00  0.11368683772E-12  0.17120000000E+03  0.17120000000E+03 0.  0.
         13    1    1    2    0    0  0.43467463336E+02  0.89362325956E+02  0.38088990708E+03  0.39363965521E+03  0.10566000000E+00 0. -1.
        994    1    1    2    0    0 -0.45144993749E+02 -0.97979341452E+02  0.50096204752E+02  0.20846364561E+03  0.17120000000E+03 0.  0.
        998    1    1    2    0    0  0.16775304125E+01  0.86170154961E+01  0.10690138844E+04  0.10690966992E+04  0.10000000000E+02 0.  1.
</event>
<event>
 5    1  0.1533416E-008  0.3753680E+03  0.7957747E-01  0.3471578E+00
         13   -1    0    0    0    0  0.00000000000E+00  0.00000000000E+00  0.14999999963E+04  0.15000000000E+04  0.10566000000E+00 0.  1.
        994   -1    0    0    0    0 -0.00000000000E+00 -0.00000000000E+00  0.11368683772E-12  0.17120000000E+03  0.17120000000E+03 0.  0.
         13    1    1    2    0    0 -0.14269659491E+02  0.56003077934E+02  0.30094423151E+03  0.30644315878E+03  0.10566000000E+00 0.  1.
        994    1    1    2    0    0  0.43261937846E+02 -0.41768882524E+01  0.12930222877E+02  0.17710356384E+03  0.17120000000E+03 0.  0.
        998    1    1    2    0    0 -0.28992278356E+02 -0.51826189681E+02  0.11861255419E+04  0.11876532774E+04  0.10000000000E+02 0.  1.
</event>
<event>
 5    1  0.1533416E-008  0.3837793E+03  0.7957747E-01  0.3434866E+00
         13   -1    0    0    0    0  0.00000000000E+00  0.00000000000E+00  0.14999999963E+04  0.15000000000E+04  0.10566000000E+00 0. -1.
        994   -1    0    0    0    0 -0.00000000000E+00 -0.00000000000E+00  0.11368683772E-12  0.17120000000E+03  0.17120000000E+03 0.  0.
         13    1    1    2    0    0  0.36038037102E+01  0.20722077323E+02  0.93290201099E+02  0.95631922886E+02  0.10566000000E+00 0. -1.
        994    1    1    2    0    0 -0.12323357582E+02 -0.19643194723E+02  0.40148296542E+01  0.17280995081E+03  0.17120000000E+03 0.  0.
        998    1    1    2    0    0  0.87195538720E+01 -0.10788825997E+01  0.14026949655E+04  0.14027581263E+04  0.10000000000E+02 0. -1.
</event>
<event>
 5    1  0.1533416E-008  0.3808862E+03  0.7957747E-01  0.3447309E+00
         13   -1    0    0    0    0  0.00000000000E+00  0.00000000000E+00  0.14999999963E+04  0.15000000000E+04  0.10566000000E+00 0.  1.
        994   -1    0    0    0    0 -0.00000000000E+00 -0.00000000000E+00  0.11368683772E-12  0.17120000000E+03  0.17120000000E+03 0.  0.
         13    1    1    2    0    0 -0.15718638491E+03  0.11129764597E+03  0.98321955705E+03  0.10019059008E+04  0.10566000000E+00 0.  1.
        994    1    1    2    0    0  0.15625302179E+03 -0.13012512428E+03  0.15666391036E+03  0.30854590517E+03  0.17120000000E+03 0.  0.
        998    1    1    2    0    0  0.93336312012E+00  0.18827478310E+02  0.36011652887E+03  0.36074819399E+03  0.10000000000E+02 0.  1.
</event>
<event>
 5    1  0.2100370E-008  0.3855117E+03  0.7957747E-01  0.3427505E+00
         13   -1    0    0    0    0  0.00000000000E+00  0.00000000000E+00  0.14999999963E+04  0.15000000000E+04  0.10566000000E+00 0. -1.
        994   -1    0    0    0    0 -0.00000000000E+00 -0.00000000000E+00  0.11368683772E-12  0.17120000000E+03  0.17120000000E+03 0.  0.
         13    1    1    2    0    0  0.25089079743E+01 -0.11522059060E+02  0.52608374782E+02  0.53913863945E+02  0.10566000000E+00 0. -1.
        994    1    1    2    0    0 -0.59364650507E+00  0.20553106681E+01  0.13913383505E+01  0.17121901921E+03  0.17120000000E+03 0.  0.
        998    1    1    2    0    0 -0.19152614692E+01  0.94667483920E+01  0.14460002831E+04  0.14460671168E+04  0.10000000000E+02 0. -1.
</event>
<event>
 5    1  0.1533416E-008  0.3733535E+03  0.7957747E-01  0.3480620E+00
         13   -1    0    0    0    0  0.00000000000E+00  0.00000000000E+00  0.14999999963E+04  0.15000000000E+04  0.10566000000E+00 0.  1.
        994   -1    0    0    0    0 -0.00000000000E+00 -0.00000000000E+00  0.11368683772E-12  0.17120000000E+03  0.17120000000E+03 0.  0.
         13    1    1    2    0    0 -0.31199556432E+02  0.43340988473E+02  0.15756773582E+03  0.16637144027E+03  0.10566000000E+00 0.  1.
        994    1    1    2    0    0  0.47895513645E+02 -0.46928956703E+02  0.23055363388E+02  0.18530325681E+03  0.17120000000E+03 0.  0.
        998    1    1    2    0    0 -0.16695957213E+02  0.35879682308E+01  0.13193768971E+04  0.13195253029E+04  0.10000000000E+02 0.  1.
</event>
<event>
 5    1  0.1533416E-008  0.3733492E+03  0.7957747E-01  0.3480639E+00
         13   -1    0    0    0    0  0.00000000000E+00  0.00000000000E+00  0.14999999963E+04  0.15000000000E+04  0.10566000000E+00 0.  1.
        994   -1    0    0    0    0 -0.00000000000E+00 -0.00000000000E+00  0.11368683772E-12  0.17120000000E+03  0.17120000000E+03 0.  0.
         13    1    1    2    0    0 -0.12753413585E+02 -0.69034014513E+01  0.11856092897E+02  0.18731914277E+02  0.10566000000E+00 0.  1.
        994    1    1    2    0    0 -0.39387964838E+02 -0.13638657199E+02  0.13491146341E+02  0.17671693686E+03  0.17120000000E+03 0.  0.
        998    1    1    2    0    0  0.52141378422E+02  0.20542058651E+02  0.14746527570E+04  0.14757511489E+04  0.10000000000E+02 0.  1.
</event>
<event>
 5    1  0.1533416E-008  0.3834485E+03  0.7957747E-01  0.3436279E+00
         13   -1    0    0    0    0  0.00000000000E+00  0.00000000000E+00  0.14999999963E+04  0.15000000000E+04  0.10566000000E+00 0. -1.
        994   -1    0    0    0    0 -0.00000000000E+00 -0.00000000000E+00  0.11368683772E-12  0.17120000000E+03  0.17120000000E+03 0.  0.
         13    1    1    2    0    0  0.12261776011E+02  0.20992273395E+02  0.13890695981E+03  0.14101837235E+03  0.10566000000E+00 0. -1.
        994    1    1    2    0    0  0.64834473894E+01 -0.25959409530E+01  0.25636284792E+01  0.17136156567E+03  0.17120000000E+03 0.  0.
        998    1    1    2    0    0 -0.18745223401E+02 -0.18396332442E+02  0.13585294080E+04  0.13588200620E+04  0.10000000000E+02 0. -1.
</event>
<event>
 5    1  0.1533416E-008  0.3773936E+03  0.7957747E-01  0.3462586E+00
         13   -1    0    0    0    0  0.00000000000E+00  0.00000000000E+00  0.14999999963E+04  0.15000000000E+04  0.10566000000E+00 0.  1.
        994   -1    0    0    0    0 -0.00000000000E+00 -0.00000000000E+00  0.11368683772E-12  0.17120000000E+03  0.17120000000E+03 0.  0.
         13    1    1    2    0    0 -0.65142147330E+02  0.11097332188E+03  0.71090308025E+03  0.72245538146E+03  0.10566000000E+00 0.  1.
        994    1    1    2    0    0  0.81213743178E+02 -0.10630919914E+03  0.68399151964E+02  0.22778323444E+03  0.17120000000E+03 0.  0.
        998    1    1    2    0    0 -0.16071595848E+02 -0.46641227369E+01  0.72069776406E+03  0.72096138410E+03  0.10000000000E+02 0.  1.
</event>
<event>
 5    1  0.1533416E-008  0.3809148E+03  0.7957747E-01  0.3447185E+00
         13   -1    0    0    0    0  0.00000000000E+00  0.00000000000E+00  0.14999999963E+04  0.15000000000E+04  0.10566000000E+00 0. -1.
        994   -1    0    0    0    0 -0.00000000000E+00 -0.00000000000E+00  0.11368683772E-12  0.17120000000E+03  0.17120000000E+03 0.  0.
         13    1    1    2    0    0 -0.31772583392E+01  0.19479389086E+02  0.52180495672E+02  0.55788501166E+02  0.10566000000E+00 0. -1.
        994    1    1    2    0    0 -0.66152041686E+00 -0.10885119837E+02  0.40685262061E+01  0.17159521074E+03  0.17120000000E+03 0.  0.
        998    1    1    2    0    0  0.38387787560E+01 -0.85942692490E+01  0.14437509744E+04  0.14438162881E+04  0.10000000000E+02 0. -1.
</event>
<event>
 5    1  0.1533416E-008  0.3856101E+03  0.7957747E-01  0.3427089E+00
         13   -1    0    0    0    0  0.00000000000E+00  0.00000000000E+00  0.14999999963E+04  0.15000000000E+04  0.10566000000E+00 0.  1.
        994   -1    0    0    0    0 -0.00000000000E+00 -0.00000000000E+00  0.11368683772E-12  0.17120000000E+03  0.17120000000E+03 0.  0.
         13    1    1    2    0    0  0.72148856972E+01 -0.95184986326E+01  0.54534439349E+02  0.55827167499E+02  0.10566000000E+00 0.  1.
        994    1    1    2    0    0 -0.74257530678E+01  0.27091765570E+01  0.15326591377E+01  0.17138923680E+03  0.17120000000E+03 0.  0.
        998    1    1    2    0    0  0.21086737060E+00  0.68093220756E+01  0.14439328978E+04  0.14439835957E+04  0.10000000000E+02 0.  1.
</event>
<event>
 5    1  0.1533416E-008  0.3847996E+03  0.7957747E-01  0.3430522E+00
         13   -1    0    0    0    0  0.00000000000E+00  0.00000000000E+00  0.14999999963E+04  0.15000000000E+04  0.10566000000E+00 0.  1.
        994   -1    0    0    0    0 -0.00000000000E+00 -0.00000000000E+00  0.11368683772E-12  0.17120000000E+03  0.17120000000E+03 0.  0.
         13    1    1    2    0    0 -0.34060639250E+01 -0.11877508159E+02  0.45016832663E+02  0.46681932892E+02  0.10566000000E+00 0.  1.
        994    1    1    2    0    0 -0.54677285795E+00  0.39784828187E+01  0.17827193024E+01  0.17125637324E+03  0.17120000000E+03 0.  0.
        998    1    1    2    0    0  0.39528367829E+01  0.78990253403E+01  0.14532004443E+04  0.14532616939E+04  0.10000000000E+02 0.  1.
</event>
<event>
 5    1  0.1533416E-008  0.3793767E+03  0.7957747E-01  0.3453877E+00
         13   -1    0    0    0    0  0.00000000000E+00  0.00000000000E+00  0.14999999963E+04  0.15000000000E+04  0.10566000000E+00 0. -1.
        994   -1    0    0    0    0 -0.00000000000E+00 -0.00000000000E+00  0.11368683772E-12  0.17120000000E+03  0.17120000000E+03 0.  0.
         13    1    1    2    0    0 -0.33923840914E+02 -0.28129570131E+02  0.26271292651E+03  0.26638354419E+03  0.10566000000E+00 0. -1.
        994    1    1    2    0    0 -0.19473724068E+01  0.72524957477E+01  0.46370326954E+01  0.17142734037E+03  0.17120000000E+03 0.  0.
        998    1    1    2    0    0  0.35871213320E+02  0.20877074383E+02  0.12326500371E+04  0.12333891154E+04  0.10000000000E+02 0. -1.
</event>
<event>
 5    1  0.1533416E-008  0.3828281E+03  0.7957747E-01  0.3438936E+00
         13   -1    0    0    0    0  0.00000000000E+00  0.00000000000E+00  0.14999999963E+04  0.15000000000E+04  0.10566000000E+00 0.  1.
        994   -1    0    0    0    0 -0.00000000000E+00 -0.00000000000E+00  0.11368683772E-12  0.17120000000E+03  0.17120000000E+03 0.  0.
         13    1    1    2    0    0 -0.13361305966E+02 -0.71176865431E+01  0.41187373123E+02  0.43881622892E+02  0.10566000000E+00 0.  1.
        994    1    1    2    0    0  0.90687086115E+01  0.69063000528E+01  0.31427925928E+01  0.17160785414E+03  0.17120000000E+03 0.  0.
        998    1    1    2    0    0  0.42925973545E+01  0.21138649024E+00  0.14556698306E+04  0.14557105230E+04  0.10000000000E+02 0.  1.
</event>
<event>
 5    1  0.1533416E-008  0.3846508E+03  0.7957747E-01  0.3431155E+00
         13   -1    0    0    0    0  0.00000000000E+00  0.00000000000E+00  0.14999999963E+04  0.15000000000E+04  0.10566000000E+00 0.  1.
        994   -1    0    0    0    0 -0.00000000000E+00 -0.00000000000E+00  0.11368683772E-12  0.17120000000E+03  0.17120000000E+03 0.  0.
         13    1    1    2    0    0  0.11815647450E+02  0.35666693004E+01  0.41730681113E+02  0.43517715528E+02  0.10566000000E+00 0.  1.
        994    1    1    2    0    0 -0.66656193082E+01 -0.10794183505E+02  0.23336865844E+01  0.17168526719E+03  0.17120000000E+03 0.  0.
        998    1    1    2    0    0 -0.51500281423E+01  0.72275142046E+01  0.14559356286E+04  0.14559970173E+04  0.10000000000E+02 0.  1.
</event>
<event>
 5    1  0.1533416E-008  0.3849916E+03  0.7957747E-01  0.3429708E+00
         13   -1    0    0    0    0  0.00000000000E+00  0.00000000000E+00  0.14999999963E+04  0.15000000000E+04  0.10566000000E+00 0.  1.
        994   -1    0    0    0    0 -0.00000000000E+00 -0.00000000000E+00  0.11368683772E-12  0.17120000000E+03  0.17120000000E+03 0.  0.
         13    1    1    2    0    0 -0.69544673800E+01 -0.74058916371E+01  0.32276157646E+02  0.33837455045E+02  0.10566000000E+00 0.  1.
        994    1    1    2    0    0 -0.18793952896E+01  0.25820048769E+01  0.16678545241E+01  0.17123790648E+03  0.17120000000E+03 0.  0.
        998    1    1    2    0    0  0.88338626696E+01  0.48238867602E+01  0.14660559841E+04  0.14661246385E+04  0.10000000000E+02 0.  1.
</event>
<event>
 5    1  0.1533416E-008  0.3800285E+03  0.7957747E-01  0.3451035E+00
         13   -1    0    0    0    0  0.00000000000E+00  0.00000000000E+00  0.14999999963E+04  0.15000000000E+04  0.10566000000E+00 0. -1.
        994   -1    0    0    0    0 -0.00000000000E+00 -0.00000000000E+00  0.11368683772E-12  0.17120000000E+03  0.17120000000E+03 0.  0.
         13    1    1    2    0    0  0.25104671888E+02  0.24495447633E+02  0.13665446677E+03  0.14108410952E+03  0.10566000000E+00 0. -1.
        994    1    1    2    0    0 -0.24589300350E+02 -0.23536442940E+02  0.80012143276E+01  0.17473424756E+03  0.17120000000E+03 0.  0.
        998    1    1    2    0    0 -0.51537153836E+00 -0.95900469253E+00  0.13553443152E+04  0.13553816429E+04  0.10000000000E+02 0.  0.
</event>
<event>
 5    1  0.1533416E-008  0.3839710E+03  0.7957747E-01  0.3434048E+00
         13   -1    0    0    0    0  0.00000000000E+00  0.00000000000E+00  0.14999999963E+04  0.15000000000E+04  0.10566000000E+00 0.  1.
        994   -1    0    0    0    0 -0.00000000000E+00 -0.00000000000E+00  0.11368683772E-12  0.17120000000E+03  0.17120000000E+03 0.  0.
         13    1    1    2    0    0 -0.70082725805E+02 -0.11111547692E+02  0.18391677563E+03  0.19713053156E+03  0.10566000000E+00 0.  1.
        994    1    1    2    0    0 -0.34563789487E+02 -0.47398341574E+02  0.31291248626E+02  0.18365685549E+03  0.17120000000E+03 0.  0.
        998    1    1    2    0    0  0.10464651529E+03  0.58509889266E+02  0.12847919720E+04  0.12904126130E+04  0.10000000000E+02 0.  1.
</event>
<event>
 5    1  0.1533416E-008  0.3732164E+03  0.7957747E-01  0.3481238E+00
         13   -1    0    0    0    0  0.00000000000E+00  0.00000000000E+00  0.14999999963E+04  0.15000000000E+04  0.10566000000E+00 0.  1.
        994   -1    0    0    0    0 -0.00000000000E+00 -0.00000000000E+00  0.11368683772E-12  0.17120000000E+03  0.17120000000E+03 0.  0.
         13    1    1    2    0    0  0.10342313400E+03  0.68052167493E+02  0.71539805168E+03  0.72603155968E+03  0.10566000000E+00 0.  1.
        994    1    1    2    0    0 -0.84404407761E+02 -0.54814365618E+02  0.43070135174E+02  0.20320727170E+03  0.17120000000E+03 0.  0.
        998    1    1    2    0    0 -0.19018726237E+02 -0.13237801875E+02  0.74153180942E+03  0.74196116862E+03  0.10000000000E+02 0.  1.
</event>
<event>
 5    1  0.1533416E-008  0.3837441E+03  0.7957747E-01  0.3435016E+00
         13   -1    0    0    0    0  0.00000000000E+00  0.00000000000E+00  0.14999999963E+04  0.15000000000E+04  0.10566000000E+00 0.  1.
        994   -1    0    0    0    0 -0.00000000000E+00 -0.00000000000E+00  0.11368683772E-12  0.17120000000E+03  0.17120000000E+03 0.  0.
         13    1    1    2    0    0 -0.16666941389E+02  0.65666500123E+01  0.70579105199E+02  0.72817093339E+02  0.10566000000E+00 0.  1.
        994    1    1    2    0    0  0.93199183004E+01 -0.83471324909E+01  0.27720026581E+01  0.17167894308E+03  0.17120000000E+03 0.  0.
        998    1    1    2    0    0  0.73470230882E+01  0.17804824786E+01  0.14266488884E+04  0.14267039636E+04  0.10000000000E+02 0.  1.
</event>
<event>
 5    1  0.1533416E-008  0.3835061E+03  0.7957747E-01  0.3436033E+00
         13   -1    0    0    0    0  0.00000000000E+00  0.00000000000E+00  0.14999999963E+04  0.15000000000E+04  0.10566000000E+00 0.  1.
        994   -1    0    0    0    0 -0.00000000000E+00 -0.00000000000E+00  0.11368683772E-12  0.17120000000E+03  0.17120000000E+03 0.  0.
         13    1    1    2    0    0 -0.12636283317E+01 -0.12142104456E+02  0.32039720808E+02  0.34286766116E+02  0.10566000000E+00 0.  1.
        994    1    1    2    0    0 -0.46520663488E+01 -0.25472602185E+01  0.24666102307E+01  0.17129989615E+03  0.17120000000E+03 0.  0.
        998    1    1    2    0    0  0.59156946805E+01  0.14689364674E+02  0.14654936652E+04  0.14656133377E+04  0.10000000000E+02 0.  1.
</event>
<event>
 5    1  0.1533416E-008  0.3733585E+03  0.7957747E-01  0.3480597E+00
         13   -1    0    0    0    0  0.00000000000E+00  0.00000000000E+00  0.14999999963E+04  0.15000000000E+04  0.10566000000E+00 0.  1.
        994   -1    0    0    0    0 -0.00000000000E+00 -0.00000000000E+00  0.11368683772E-12  0.17120000000E+03  0.17120000000E+03 0.  0.
         13    1    1    2    0    0 -0.18462602545E+02 -0.12116078448E+01  0.19457510682E+02  0.26850355162E+02  0.10566000000E+00 0.  1.
        994    1    1    2    0    0  0.14771490839E+02 -0.43414209188E+01  0.83347645325E+01  0.17209286207E+03  0.17120000000E+03 0.  0.
        998    1    1    2    0    0  0.36911117069E+01  0.55530287636E+01  0.14722077211E+04  0.14722567828E+04  0.10000000000E+02 0.  1.
</event>
<event>
 5    1  0.1533416E-008  0.3862539E+03  0.7957747E-01  0.3424372E+00
         13   -1    0    0    0    0  0.00000000000E+00  0.00000000000E+00  0.14999999963E+04  0.15000000000E+04  0.10566000000E+00 0. -1.
        994   -1    0    0    0    0 -0.00000000000E+00 -0.00000000000E+00  0.11368683772E-12  0.17120000000E+03  0.17120000000E+03 0.  0.
         13    1    1    2    0    0  0.48846209508E+01 -0.92208490072E+01  0.55590354714E+02  0.56561314337E+02  0.10566000000E+00 0. -1.
        994    1    1    2    0    0 -0.46524101018E+01  0.34472561853E+01  0.11187119559E+01  0.17130154702E+03  0.17120000000E+03 0.  0.
        998    1    1    2    0    0 -0.23221084901E+00  0.57735928219E+01  0.14432909296E+04  0.14433371386E+04  0.10000000000E+02 0. -1.
</event>
<event>
 5    1  0.1533416E-008  0.3859104E+03  0.7957747E-01  0.3425820E+00
         13   -1    0    0    0    0  0.00000000000E+00  0.00000000000E+00  0.14999999963E+04  0.15000000000E+04  0.10566000000E+00 0. -1.
        994   -1    0    0    0    0 -0.00000000000E+00 -0.00000000000E+00  0.11368683772E-12  0.17120000000E+03  0.17120000000E+03 0.  0.
         13    1    1    2    0    0 -0.15853207939E+01 -0.11344049100E+02  0.55053782639E+02  0.56232827057E+02  0.10566000000E+00 0. -1.
        994    1    1    2    0    0  0.27136034721E+01  0.10514227883E+02  0.15655294789E+01  0.17155116879E+03  0.17120000000E+03 0.  0.
        998    1    1    2    0    0 -0.11282826781E+01  0.82982121669E+00  0.14433806842E+04  0.14434160041E+04  0.10000000000E+02 0. -1.
</event>
<event>
 5    1  0.1533416E-008  0.3701594E+03  0.7957747E-01  0.3495159E+00
         13   -1    0    0    0    0  0.00000000000E+00  0.00000000000E+00  0.14999999963E+04  0.15000000000E+04  0.10566000000E+00 0. -1.
        994   -1    0    0    0    0 -0.00000000000E+00 -0.00000000000E+00  0.11368683772E-12  0.17120000000E+03  0.17120000000E+03 0.  0.
         13    1    1    2    0    0  0.58446994786E+02  0.72126613498E+02  0.37189414727E+03  0.38330610158E+03  0.10566000000E+00 0. -1.
        994    1    1    2    0    0 -0.51739319890E+02 -0.66449434991E+02  0.34111146607E+02  0.19381820079E+03  0.17120000000E+03 0.  0.
        998    1    1    2    0    0 -0.67076748960E+01 -0.56771785068E+01  0.10939947024E+04  0.10940756976E+04  0.10000000000E+02 0. -1.
</event>
<event>
 5    1  0.1533416E-008  0.3702081E+03  0.7957747E-01  0.3494935E+00
         13   -1    0    0    0    0  0.00000000000E+00  0.00000000000E+00  0.14999999963E+04  0.15000000000E+04  0.10566000000E+00 0.  1.
        994   -1    0    0    0    0 -0.00000000000E+00 -0.00000000000E+00  0.11368683772E-12  0.17120000000E+03  0.17120000000E+03 0.  0.
         13    1    1    2    0    0  0.54404964611E+02 -0.18970826512E+02  0.16466069630E+03  0.17445041847E+03  0.10566000000E+00 0.  1.
        994    1    1    2    0    0 -0.46511250848E+02  0.21745575121E+02  0.18324496418E+02  0.17967023588E+03  0.17120000000E+03 0.  0.
        998    1    1    2    0    0 -0.78937137631E+01 -0.27747486090E+01  0.13170148036E+04  0.13170793457E+04  0.10000000000E+02 0.  1.
</event>
<event>
 5    1  0.1533416E-008  0.3834725E+03  0.7957747E-01  0.3436177E+00
         13   -1    0    0    0    0  0.00000000000E+00  0.00000000000E+00  0.14999999963E+04  0.15000000000E+04  0.10566000000E+00 0. -1.
        994   -1    0    0    0    0 -0.00000000000E+00 -0.00000000000E+00  0.11368683772E-12  0.17120000000E+03  0.17120000000E+03 0.  0.
         13    1    1    2    0    0 -0.13540886369E+02 -0.19976744072E+02  0.13253995928E+03  0.13471925577E+03  0.10566000000E+00 0. -1.
        994    1    1    2    0    0  0.15053515559E+01  0.27907436509E+01  0.24236670980E+01  0.17124651382E+03  0.17120000000E+03 0.  0.
        998    1    1    2    0    0  0.12035534813E+02  0.17186000421E+02  0.13650363699E+04  0.13652342304E+04  0.10000000000E+02 0. -1.
</event>
<event>
 5    1  0.3199815E-008  0.3859278E+03  0.7957747E-01  0.3425747E+00
         13   -1    0    0    0    0  0.00000000000E+00  0.00000000000E+00  0.14999999963E+04  0.15000000000E+04  0.10566000000E+00 0. -1.
        994   -1    0    0    0    0 -0.00000000000E+00 -0.00000000000E+00  0.11368683772E-12  0.17120000000E+03  0.17120000000E+03 0.  0.
         13    1    1    2    0    0  0.76528032975E+01  0.71283438158E+01  0.49122048652E+02  0.50223157125E+02  0.10566000000E+00 0. -1.
        994    1    1    2    0    0  0.87004821337E+00 -0.23924621886E+01  0.11914545290E+01  0.17122307211E+03  0.17120000000E+03 0.  0.
        998    1    1    2    0    0 -0.85228515109E+01 -0.47358816272E+01  0.14496864931E+04  0.14497537708E+04  0.10000000000E+02 0. -1.
</event>
<event>
 5    1  0.1533416E-008  0.3728234E+03  0.7957747E-01  0.3483015E+00
         13   -1    0    0    0    0  0.00000000000E+00  0.00000000000E+00  0.14999999963E+04  0.15000000000E+04  0.10566000000E+00 0. -1.
        994   -1    0    0    0    0 -0.00000000000E+00 -0.00000000000E+00  0.11368683772E-12  0.17120000000E+03  0.17120000000E+03 0.  0.
         13    1    1    2    0    0 -0.35637805870E+02 -0.44522494927E+02  0.23177290035E+03  0.23868597417E+03  0.10566000000E+00 0. -1.
        994    1    1    2    0    0  0.23142031315E+02 -0.25947442800E+00  0.96370193028E+01  0.17302581623E+03  0.17120000000E+03 0.  0.
        998    1    1    2    0    0  0.12495774555E+02  0.44781969355E+02  0.12585900766E+04  0.12594882096E+04  0.10000000000E+02 0. -1.
</event>
<event>
 5    1  0.1533416E-008  0.3792746E+03  0.7957747E-01  0.3454323E+00
         13   -1    0    0    0    0  0.00000000000E+00  0.00000000000E+00  0.14999999963E+04  0.15000000000E+04  0.10566000000E+00 0.  1.
        994   -1    0    0    0    0 -0.00000000000E+00 -0.00000000000E+00  0.11368683772E-12  0.17120000000E+03  0.17120000000E+03 0.  0.
         13    1    1    2    0    0 -0.94857839252E+01  0.60021946981E+01  0.11906985029E+02  0.16364409381E+02  0.10566000000E+00 0.  1.
        994    1    1    2    0    0  0.96221551415E+01 -0.75357850431E+01  0.50004605765E+01  0.17170852784E+03  0.17120000000E+03 0.  0.
        998    1    1    2    0    0 -0.13637121625E+00  0.15335903450E+01  0.14830925507E+04  0.14831270628E+04  0.10000000000E+02 0.  1.
</event>
<event>
 5    1  0.1533416E-008  0.3737517E+03  0.7957747E-01  0.3478825E+00
         13   -1    0    0    0    0  0.00000000000E+00  0.00000000000E+00  0.14999999963E+04  0.15000000000E+04  0.10566000000E+00 0. -1.
        994   -1    0    0    0    0 -0.00000000000E+00 -0.00000000000E+00  0.11368683772E-12  0.17120000000E+03  0.17120000000E+03 0.  0.
         13    1    1    2    0    0 -0.47261930405E+02  0.36424584544E+02  0.27691110213E+03  0.28326702962E+03  0.10566000000E+00 0. -1.
        994    1    1    2    0    0  0.23961351779E+02  0.65362377181E+01  0.94297545364E+01  0.17324903767E+03  0.17120000000E+03 0.  0.
        998    1    1    2    0    0  0.23300578626E+02 -0.42960822262E+02  0.12136591396E+04  0.12146839327E+04  0.10000000000E+02 0. -1.
</event>
<event>
 5    1  0.1533416E-008  0.3705311E+03  0.7957747E-01  0.3493453E+00
         13   -1    0    0    0    0  0.00000000000E+00  0.00000000000E+00  0.14999999963E+04  0.15000000000E+04  0.10566000000E+00 0. -1.
        994   -1    0    0    0    0 -0.00000000000E+00 -0.00000000000E+00  0.11368683772E-12  0.17120000000E+03  0.17120000000E+03 0.  0.
         13    1    1    2    0    0 -0.49361096807E+02  0.20502508467E+02  0.12040392769E+03  0.13173453495E+03  0.10566000000E+00 0. -1.
        994    1    1    2    0    0  0.82596747191E+02 -0.48642734415E+02  0.41406308475E+02  0.20052994948E+03  0.17120000000E+03 0.  0.
        998    1    1    2    0    0 -0.33235650384E+02  0.28140225948E+02  0.13381897601E+04  0.13389355156E+04  0.10000000000E+02 0. -1.
</event>
<event>
 5    1  0.1533416E-008  0.3841594E+03  0.7957747E-01  0.3433245E+00
         13   -1    0    0    0    0  0.00000000000E+00  0.00000000000E+00  0.14999999963E+04  0.15000000000E+04  0.10566000000E+00 0.  1.
        994   -1    0    0    0    0 -0.00000000000E+00 -0.00000000000E+00  0.11368683772E-12  0.17120000000E+03  0.17120000000E+03 0.  0.
         13    1    1    2    0    0  0.47224337259E+00  0.16009448455E+02  0.53837663595E+02  0.56169659417E+02  0.10566000000E+00 0.  1.
        994    1    1    2    0    0  0.91814816140E+00 -0.38948987626E+02  0.70695593896E+01  0.17571933674E+03  0.17120000000E+03 0.  0.
        998    1    1    2    0    0 -0.13903915340E+01  0.22939539171E+02  0.14390927733E+04  0.14393110038E+04  0.10000000000E+02 0.  1.
</event>
<event>
 5    1  0.1533416E-008  0.3579084E+03  0.7957747E-01  0.3553377E+00
         13   -1    0    0    0    0  0.00000000000E+00  0.00000000000E+00  0.14999999963E+04  0.15000000000E+04  0.10566000000E+00 0. -1.
        994   -1    0    0    0    0 -0.00000000000E+00 -0.00000000000E+00  0.11368683772E-12  0.17120000000E+03  0.17120000000E+03 0.  0.
         13    1    1    2    0    0 -0.23724731376E+03 -0.12899836479E+03  0.96104406884E+03  0.99826478422E+03  0.10566000000E+00 0. -1.
        994    1    1    2    0    0  0.22556270274E+03  0.11240644591E+03  0.28251149425E+03  0.41549479700E+03  0.17120000000E+03 0.  0.
        998    1    1    2    0    0  0.11684611025E+02  0.16591918872E+02  0.25644443319E+03  0.25744041878E+03  0.10000000000E+02 0.  1.
</event>
<event>
 5    1  0.1533416E-008  0.3715678E+03  0.7957747E-01  0.3488717E+00
         13   -1    0    0    0    0  0.00000000000E+00  0.00000000000E+00  0.14999999963E+04  0.15000000000E+04  0.10566000000E+00 0.  1.
        994   -1    0    0    0    0 -0.00000000000E+00 -0.00000000000E+00  0.11368683772E-12  0.17120000000E+03  0.17120000000E+03 0.  0.
         13    1    1    2    0    0  0.62681099527E+02  0.39950149488E+02  0.33249557210E+03  0.34070258483E+03  0.10566000000E+00 0.  1.
        994    1    1    2    0    0 -0.39728991059E+02 -0.10925775208E+02  0.14313246713E+02  0.17666939273E+03  0.17120000000E+03 0.  0.
        998    1    1    2    0    0 -0.22952108467E+02 -0.29024374279E+02  0.11531911775E+04  0.11538280224E+04  0.10000000000E+02 0.  1.
</event>
<event>
 5    1  0.1533416E-008  0.3824620E+03  0.7957747E-01  0.3440508E+00
         13   -1    0    0    0    0  0.00000000000E+00  0.00000000000E+00  0.14999999963E+04  0.15000000000E+04  0.10566000000E+00 0.  1.
        994   -1    0    0    0    0 -0.00000000000E+00 -0.00000000000E+00  0.11368683772E-12  0.17120000000E+03  0.17120000000E+03 0.  0.
         13    1    1    2    0    0 -0.10245723945E+02  0.67844864875E+01  0.24688596154E+02  0.27577927046E+02  0.10566000000E+00 0.  1.
        994    1    1    2    0    0  0.88451345242E+01 -0.91172179092E+01  0.34307033503E+01  0.17170489158E+03  0.17120000000E+03 0.  0.
        998    1    1    2    0    0  0.14005894206E+01  0.23327314218E+01  0.14718806968E+04  0.14719171814E+04  0.10000000000E+02 0.  1.
</event>
<event>
 5    1  0.1533416E-008  0.3820233E+03  0.7957747E-01  0.3442396E+00
         13   -1    0    0    0    0  0.00000000000E+00  0.00000000000E+00  0.14999999963E+04  0.15000000000E+04  0.10566000000E+00 0.  1.
        994   -1    0    0    0    0 -0.00000000000E+00 -0.00000000000E+00  0.11368683772E-12  0.17120000000E+03  0.17120000000E+03 0.  0.
         13    1    1    2    0    0 -0.59662873224E+01  0.89521500571E+01  0.17572027052E+02  0.20604001403E+02  0.10566000000E+00 0.  1.
        994    1    1    2    0    0  0.34297178081E+01 -0.67967859467E+00  0.31558539967E+01  0.17126477846E+03  0.17120000000E+03 0.  0.
        998    1    1    2    0    0  0.25365695143E+01 -0.82724714624E+01  0.14792721152E+04  0.14793312201E+04  0.10000000000E+02 0.  1.
</event>
<event>
 5    1  0.1533416E-008  0.3853245E+03  0.7957747E-01  0.3428297E+00
         13   -1    0    0    0    0  0.00000000000E+00  0.00000000000E+00  0.14999999963E+04  0.15000000000E+04  0.10566000000E+00 0. -1.
        994   -1    0    0    0    0 -0.00000000000E+00 -0.00000000000E+00  0.11368683772E-12  0.17120000000E+03  0.17120000000E+03 0.  0.
         13    1    1    2    0    0  0.52099707359E+01  0.11515130005E+02  0.54965590226E+02  0.56400082332E+02  0.10566000000E+00 0. -1.
        994    1    1    2    0    0 -0.10606696494E+02 -0.30772838784E+01  0.18699370265E+01  0.17156604661E+03  0.17120000000E+03 0.  0.
        998    1    1    2    0    0  0.53967257581E+01 -0.84378461263E+01  0.14431644690E+04  0.14432338711E+04  0.10000000000E+02 0. -1.
</event>
<event>
 5    1  0.1533416E-008  0.3833214E+03  0.7957747E-01  0.3436823E+00
         13   -1    0    0    0    0  0.00000000000E+00  0.00000000000E+00  0.14999999963E+04  0.15000000000E+04  0.10566000000E+00 0. -1.
        994   -1    0    0    0    0 -0.00000000000E+00 -0.00000000000E+00  0.11368683772E-12  0.17120000000E+03  0.17120000000E+03 0.  0.
         13    1    1    2    0    0 -0.16918126194E+01 -0.19639895980E+02  0.83266389837E+02  0.85568046516E+02  0.10566000000E+00 0. -1.
        994    1    1    2    0    0  0.21258370966E+02  0.55642355832E+00  0.39626039995E+01  0.17256120704E+03  0.17120000000E+03 0.  0.
        998    1    1    2    0    0 -0.19566558346E+02  0.19083472422E+02  0.14127710024E+04  0.14130707464E+04  0.10000000000E+02 0. -1.
</event>
<event>
 5    1  0.1533416E-008  0.3807883E+03  0.7957747E-01  0.3447733E+00
         13   -1    0    0    0    0  0.00000000000E+00  0.00000000000E+00  0.14999999963E+04  0.15000000000E+04  0.10566000000E+00 0.  1.
        994   -1    0    0    0    0 -0.00000000000E+00 -0.00000000000E+00  0.11368683772E-12  0.17120000000E+03  0.17120000000E+03 0.  0.
         13    1    1    2    0    0  0.16788671473E+02 -0.16561044378E+01  0.36269134102E+02  0.40000792796E+02  0.10566000000E+00 0.  1.
        994    1    1    2    0    0 -0.15353677997E+02 -0.70013739080E+01  0.46857502348E+01  0.17209343660E+03  0.17120000000E+03 0.  0.
        998    1    1    2    0    0 -0.14349934754E+01  0.86574783458E+01  0.14590451119E+04  0.14591057706E+04  0.10000000000E+02 0.  1.
</event>
<event>
 5    1  0.1533416E-008  0.3860417E+03  0.7957747E-01  0.3425266E+00
         13   -1    0    0    0    0  0.00000000000E+00  0.00000000000E+00  0.14999999963E+04  0.15000000000E+04  0.10566000000E+00 0. -1.
        994   -1    0    0    0    0 -0.00000000000E+00 -0.00000000000E+00  0.11368683772E-12  0.17120000000E+03  0.17120000000E+03 0.  0.
         13    1    1    2    0    0  0.62135751811E+01 -0.10570784876E+02  0.65752232775E+02  0.66885852677E+02  0.10566000000E+00 0. -1.
        994    1    1    2    0    0 -0.15291261675E+02  0.65155496709E+01  0.20198791369E+01  0.17201684506E+03  0.17120000000E+03 0.  0.
        998    1    1    2    0    0  0.90776864935E+01  0.40552352048E+01  0.14322278844E+04  0.14322973023E+04  0.10000000000E+02 0. -1.
</event>
<event>
 5    1  0.1533416E-008  0.3743029E+03  0.7957747E-01  0.3476346E+00
         13   -1    0    0    0    0  0.00000000000E+00  0.00000000000E+00  0.14999999963E+04  0.15000000000E+04  0.10566000000E+00 0.  1.
        994   -1    0    0    0    0 -0.00000000000E+00 -0.00000000000E+00  0.11368683772E-12  0.17120000000E+03  0.17120000000E+03 0.  0.
         13    1    1    2    0    0 -0.25093436496E+02 -0.24916260898E+02  0.91785284699E+02  0.98361833369E+02  0.10566000000E+00 0.  1.
        994    1    1    2    0    0  0.43754348791E+01  0.49409032778E+01  0.71855609118E+01  0.17147778060E+03  0.17120000000E+03 0.  0.
        998    1    1    2    0    0  0.20718001617E+02  0.19975357620E+02  0.14010291507E+04  0.14013603860E+04  0.10000000000E+02 0.  1.
</event>
<event>
 5    1  0.1533416E-008  0.3858571E+03  0.7957747E-01  0.3426045E+00
         13   -1    0    0    0    0  0.00000000000E+00  0.00000000000E+00  0.14999999963E+04  0.15000000000E+04  0.10566000000E+00 0.  1.
        994   -1    0    0    0    0 -0.00000000000E+00 -0.00000000000E+00  0.11368683772E-12  0.17120000000E+03  0.17120000000E+03 0.  0.
         13    1    1    2    0    0 -0.46324113847E+00  0.13477157331E+02  0.72906094519E+02  0.74142822607E+02  0.10566000000E+00 0.  1.
        994    1    1    2    0    0 -0.23416866231E+01 -0.14661667972E+02  0.19285066909E+01  0.17185344670E+03  0.17120000000E+03 0.  0.
        998    1    1    2    0    0  0.28049277616E+01  0.11845106414E+01  0.14251653951E+04  0.14252037307E+04  0.10000000000E+02 0.  1.
</event>
<event>
 5    1  0.1533416E-008  0.3737814E+03  0.7957747E-01  0.3478691E+00
         13   -1    0    0    0    0  0.00000000000E+00  0.00000000000E+00  0.14999999963E+04  0.15000000000E+04  0.10566000000E+00 0.  1.
        994   -1    0    0    0    0 -0.00000000000E+00 -0.00000000000E+00  0.11368683772E-12  0.17120000000E+03  0.17120000000E+03 0.  0.
         13    1    1    2    0    0 -0.23956824121E+02  0.20214039556E+02  0.71894546042E+02  0.78430693811E+02  0.10566000000E+00 0.  1.
        994    1    1    2    0    0  0.16519957219E+01  0.18254316321E+02  0.84533392454E+01  0.17238575376E+03  0.17120000000E+03 0.  0.
        998    1    1    2    0    0  0.22304828399E+02 -0.38468355877E+02  0.14196521110E+04  0.14203835524E+04  0.10000000000E+02 0.  1.
</event>
<event>
 5    1  0.1533416E-008  0.3818510E+03  0.7957747E-01  0.3443138E+00
         13   -1    0    0    0    0  0.00000000000E+00  0.00000000000E+00  0.14999999963E+04  0.15000000000E+04  0.10566000000E+00 0. -1.
        994   -1    0    0    0    0 -0.00000000000E+00 -0.00000000000E+00  0.11368683772E-12  0.17120000000E+03  0.17120000000E+03 0.  0.
         13    1    1    2    0    0 -0.11581210137E+02 -0.29367271327E+02  0.17041905055E+03  0.17331827662E+03  0.10566000000E+00 0. -1.
        994    1    1    2    0    0  0.40617465465E+01  0.48245617917E+01  0.33338538995E+01  0.17134855927E+03  0.17120000000E+03 0.  0.
        998    1    1    2    0    0  0.75194635903E+01  0.24542709535E+02  0.13262470918E+04  0.13265331641E+04  0.10000000000E+02 0. -1.
</event>
<event>
 5    1  0.1533416E-008  0.3763454E+03  0.7957747E-01  0.3467228E+00
         13   -1    0    0    0    0  0.00000000000E+00  0.00000000000E+00  0.14999999963E+04  0.15000000000E+04  0.10566000000E+00 0.  1.
        994   -1    0    0    0    0 -0.00000000000E+00 -0.00000000000E+00  0.11368683772E-12  0.17120000000E+03  0.17120000000E+03 0.  0.
         13    1    1    2    0    0  0.86709648533E+02  0.41636602722E+02  0.56971075850E+03  0.57777377004E+03  0.10566000000E+00 0.  1.
        994    1    1    2    0    0 -0.77703801409E+02 -0.27439629436E+02  0.29325857485E+02  0.19225051348E+03  0.17120000000E+03 0.  0.
        998    1    1    2    0    0 -0.90058471239E+01 -0.14196973286E+02  0.90096338029E+03  0.90117571647E+03  0.10000000000E+02 0.  0.
</event>
<event>
 5    1  0.1533416E-008  0.3860291E+03  0.7957747E-01  0.3425319E+00
         13   -1    0    0    0    0  0.00000000000E+00  0.00000000000E+00  0.14999999963E+04  0.15000000000E+04  0.10566000000E+00 0. -1.
        994   -1    0    0    0    0 -0.00000000000E+00 -0.00000000000E+00  0.11368683772E-12  0.17120000000E+03  0.17120000000E+03 0.  0.
         13    1    1    2    0    0 -0.10838753293E+02  0.57412483207E+01  0.64438030693E+02  0.65595056741E+02  0.10566000000E+00 0. -1.
        994    1    1    2    0    0  0.13830954591E+02 -0.65960687351E+01  0.18900556448E+01  0.17189478101E+03  0.17120000000E+03 0.  0.
        998    1    1    2    0    0 -0.29922012983E+01  0.85482041437E+00  0.14336719099E+04  0.14337101623E+04  0.10000000000E+02 0. -1.
</event>
<event>
 5    1  0.1533416E-008  0.3824935E+03  0.7957747E-01  0.3440373E+00
         13   -1    0    0    0    0  0.00000000000E+00  0.00000000000E+00  0.14999999963E+04  0.15000000000E+04  0.10566000000E+00 0.  1.
        994   -1    0    0    0    0 -0.00000000000E+00 -0.00000000000E+00  0.11368683772E-12  0.17120000000E+03  0.17120000000E+03 0.  0.
         13    1    1    2    0    0 -0.10948770987E+02  0.40950028301E+01  0.22721486862E+02  0.25552333818E+02  0.10566000000E+00 0.  1.
        994    1    1    2    0    0  0.76359676437E+01  0.40388121280E+00  0.30735901797E+01  0.17139824409E+03  0.17120000000E+03 0.  0.
        998    1    1    2    0    0  0.33128033433E+01 -0.44988840429E+01  0.14742049192E+04  0.14742494221E+04  0.10000000000E+02 0.  1.
</event>
<event>
 5    1  0.1533416E-008  0.3774750E+03  0.7957747E-01  0.3462227E+00
         13   -1    0    0    0    0  0.00000000000E+00  0.00000000000E+00  0.14999999963E+04  0.15000000000E+04  0.10566000000E+00 0.  1.
        994   -1    0    0    0    0 -0.00000000000E+00 -0.00000000000E+00  0.11368683772E-12  0.17120000000E+03  0.17120000000E+03 0.  0.
         13    1    1    2    0    0  0.17585790236E+03 -0.15206375631E+03  0.97992887428E+03  0.10071295833E+04  0.10566000000E+00 0.  1.
        994    1    1    2    0    0 -0.16466020479E+03  0.17194963113E+03  0.22933417782E+03  0.37226773135E+03  0.17120000000E+03 0.  0.
        998    1    1    2    0    0 -0.11197697563E+02 -0.19885874824E+02  0.29073694419E+03  0.29180268532E+03  0.10000000000E+02 0.  1.
</event>
<event>
 5    1  0.1533416E-008  0.3792238E+03  0.7957747E-01  0.3454545E+00
         13   -1    0    0    0    0  0.00000000000E+00  0.00000000000E+00  0.14999999963E+04  0.15000000000E+04  0.10566000000E+00 0. -1.
        994   -1    0    0    0    0 -0.00000000000E+00 -0.00000000000E+00  0.11368683772E-12  0.17120000000E+03  0.17120000000E+03 0.  0.
         13    1    1    2    0    0 -0.42114764276E+02  0.60160124684E+02  0.43167936783E+03  0.43788124160E+03  0.10566000000E+00 0. -1.
        994    1    1    2    0    0  0.46224177103E+02 -0.55280674397E+02  0.22130084510E+02  0.18706097442E+03  0.17120000000E+03 0.  0.
        998    1    1    2    0    0 -0.41094128272E+01 -0.48794502866E+01  0.10461905439E+04  0.10462577840E+04  0.10000000000E+02 0. -1.
</event>
<event>
 5    1  0.1533416E-008  0.3806427E+03  0.7957747E-01  0.3448365E+00
         13   -1    0    0    0    0  0.00000000000E+00  0.00000000000E+00  0.14999999963E+04  0.15000000000E+04  0.10566000000E+00 0.  1.
        994   -1    0    0    0    0 -0.00000000000E+00 -0.00000000000E+00  0.11368683772E-12  0.17120000000E+03  0.17120000000E+03 0.  0.
         13    1    1    2    0    0  0.21588918106E+01 -0.24765058036E+02  0.95033576229E+02  0.98231159457E+02  0.10566000000E+00 0.  1.
        994    1    1    2    0    0 -0.24962773317E+02 -0.18974701912E+02  0.70957041347E+01  0.17419233158E+03  0.17120000000E+03 0.  0.
        998    1    1    2    0    0  0.22803881507E+02  0.43739759948E+02  0.13978707159E+04  0.13987765090E+04  0.10000000000E+02 0.  1.
</event>
<event>
 5    1  0.1533416E-008  0.3833373E+03  0.7957747E-01  0.3436754E+00
         13   -1    0    0    0    0  0.00000000000E+00  0.00000000000E+00  0.14999999963E+04  0.15000000000E+04  0.10566000000E+00 0. -1.
        994   -1    0    0    0    0 -0.00000000000E+00 -0.00000000000E+00  0.11368683772E-12  0.17120000000E+03  0.17120000000E+03 0.  0.
         13    1    1    2    0    0 -0.43318612383E+02 -0.19083859023E+02  0.26818507116E+03  0.27233057010E+03  0.10566000000E+00 0. -1.
        994    1    1    2    0    0  0.66547867493E+02  0.48267611558E+02  0.25134581344E+02  0.19157131354E+03  0.17120000000E+03 0.  0.
        998    1    1    2    0    0 -0.23229255110E+02 -0.29183752535E+02  0.12066803438E+04  0.12072981164E+04  0.10000000000E+02 0. -1.
</event>
<event>
 5    1  0.1533416E-008  0.3854840E+03  0.7957747E-01  0.3427622E+00
         13   -1    0    0    0    0  0.00000000000E+00  0.00000000000E+00  0.14999999963E+04  0.15000000000E+04  0.10566000000E+00 0.  1.
        994   -1    0    0    0    0 -0.00000000000E+00 -0.00000000000E+00  0.11368683772E-12  0.17120000000E+03  0.17120000000E+03 0.  0.
         13    1    1    2    0    0  0.26748818448E+01 -0.10503715132E+02  0.42281312830E+02  0.43648638044E+02  0.10566000000E+00 0.  1.
        994    1    1    2    0    0 -0.32368072629E+00  0.79624164844E+01  0.15985993830E+01  0.17139282472E+03  0.17120000000E+03 0.  0.
        998    1    1    2    0    0 -0.23512011185E+01  0.25412986475E+01  0.14561200841E+04  0.14561585372E+04  0.10000000000E+02 0.  1.
</event>
<event>
 5    1  0.1533416E-008  0.3791257E+03  0.7957747E-01  0.3454974E+00
         13   -1    0    0    0    0  0.00000000000E+00  0.00000000000E+00  0.14999999963E+04  0.15000000000E+04  0.10566000000E+00 0.  1.
        994   -1    0    0    0    0 -0.00000000000E+00 -0.00000000000E+00  0.11368683772E-12  0.17120000000E+03  0.17120000000E+03 0.  0.
         13    1    1    2    0    0  0.15432076835E+02 -0.40869813882E+02  0.26186580555E+03  0.26548484319E+03  0.10566000000E+00 0.  1.
        994    1    1    2    0    0  0.69372030443E+01  0.26109499914E+00  0.47367441748E+01  0.17140615421E+03  0.17120000000E+03 0.  0.
        998    1    1    2    0    0 -0.22369279879E+02  0.40608718883E+02  0.12333974466E+04  0.12343090026E+04  0.10000000000E+02 0.  1.
</event>
<event>
 5    1  0.1533416E-008  0.3776137E+03  0.7957747E-01  0.3461615E+00
         13   -1    0    0    0    0  0.00000000000E+00  0.00000000000E+00  0.14999999963E+04  0.15000000000E+04  0.10566000000E+00 0. -1.
        994   -1    0    0    0    0 -0.00000000000E+00 -0.00000000000E+00  0.11368683772E-12  0.17120000000E+03  0.17120000000E+03 0.  0.
         13    1    1    2    0    0 -0.11722407263E+03  0.91916633519E+02  0.70646057588E+03  0.72199494954E+03  0.10566000000E+00 0. -1.
        994    1    1    2    0    0  0.12072521828E+03 -0.12370098600E+03  0.11369872749E+03  0.26853929489E+03  0.17120000000E+03 0.  0.
        998    1    1    2    0    0 -0.35011456487E+01  0.31784352476E+02  0.67984069290E+03  0.68066575557E+03  0.10000000000E+02 0. -1.
</event>
<event>
 5    1  0.1533416E-008  0.3851270E+03  0.7957747E-01  0.3429134E+00
         13   -1    0    0    0    0  0.00000000000E+00  0.00000000000E+00  0.14999999963E+04  0.15000000000E+04  0.10566000000E+00 0. -1.
        994   -1    0    0    0    0 -0.00000000000E+00 -0.00000000000E+00  0.11368683772E-12  0.17120000000E+03  0.17120000000E+03 0.  0.
         13    1    1    2    0    0 -0.13119588477E+02 -0.42427362214E+01  0.65381515627E+02  0.66819743805E+02  0.10566000000E+00 0. -1.
        994    1    1    2    0    0 -0.39845500607E+00 -0.55517782752E+01  0.16689362442E+01  0.17129858831E+03  0.17120000000E+03 0.  0.
        998    1    1    2    0    0  0.13518043483E+02  0.97945144966E+01  0.14329495444E+04  0.14330816679E+04  0.10000000000E+02 0. -1.
</event>
<event>
 5    1  0.1533416E-008  0.3812726E+03  0.7957747E-01  0.3445636E+00
         13   -1    0    0    0    0  0.00000000000E+00  0.00000000000E+00  0.14999999963E+04  0.15000000000E+04  0.10566000000E+00 0.  1.
        994   -1    0    0    0    0 -0.00000000000E+00 -0.00000000000E+00  0.11368683772E-12  0.17120000000E+03  0.17120000000E+03 0.  0.
         13    1    1    2    0    0  0.47122521732E+01  0.20666242353E+02  0.63794130794E+02  0.67223516579E+02  0.10566000000E+00 0.  1.
        994    1    1    2    0    0 -0.64358206098E+01 -0.10019867845E+02  0.39643669610E+01  0.17165947030E+03  0.17120000000E+03 0.  0.
        998    1    1    2    0    0  0.17235684366E+01 -0.10646374507E+02  0.14322414985E+04  0.14323170131E+04  0.10000000000E+02 0.  1.
</event>
<event>
 5    1  0.1533416E-008  0.3727579E+03  0.7957747E-01  0.3483312E+00
         13   -1    0    0    0    0  0.00000000000E+00  0.00000000000E+00  0.14999999963E+04  0.15000000000E+04  0.10566000000E+00 0. -1.
        994   -1    0    0    0    0 -0.00000000000E+00 -0.00000000000E+00  0.11368683772E-12  0.17120000000E+03  0.17120000000E+03 0.  0.
         13    1    1    2    0    0  0.26460031626E+01 -0.61181066761E+02  0.22151002274E+03  0.22981911496E+03  0.10566000000E+00 0. -1.
        994    1    1    2    0    0 -0.17939990777E+02  0.46381271696E+02  0.16353055606E+02  0.17902493698E+03  0.17120000000E+03 0.  0.
        998    1    1    2    0    0  0.15293987614E+02  0.14799795065E+02  0.12621369179E+04  0.12623559481E+04  0.10000000000E+02 0. -1.
</event>
<event>
 5    1  0.1533416E-008  0.3833510E+03  0.7957747E-01  0.3436696E+00
         13   -1    0    0    0    0  0.00000000000E+00  0.00000000000E+00  0.14999999963E+04  0.15000000000E+04  0.10566000000E+00 0. -1.
        994   -1    0    0    0    0 -0.00000000000E+00 -0.00000000000E+00  0.11368683772E-12  0.17120000000E+03  0.17120000000E+03 0.  0.
         13    1    1    2    0    0  0.68505101722E+01  0.15733422070E+02  0.68208263242E+02  0.70333835373E+02  0.10566000000E+00 0. -1.
        994    1    1    2    0    0 -0.34414268530E+01  0.16634326519E+02  0.34056685652E+01  0.17207435258E+03  0.17120000000E+03 0.  0.
        998    1    1    2    0    0 -0.34090833192E+01 -0.32367748589E+02  0.14283860645E+04  0.14287918120E+04  0.10000000000E+02 0. -1.
</event>
<event>
 5    1  0.1533416E-008  0.3834146E+03  0.7957747E-01  0.3436424E+00
         13   -1    0    0    0    0  0.00000000000E+00  0.00000000000E+00  0.14999999963E+04  0.15000000000E+04  0.10566000000E+00 0. -1.
        994   -1    0    0    0    0 -0.00000000000E+00 -0.00000000000E+00  0.11368683772E-12  0.17120000000E+03  0.17120000000E+03 0.  0.
         13    1    1    2    0    0  0.10908960335E+02  0.53433917142E+01  0.30779660009E+02  0.33090117632E+02  0.10566000000E+00 0. -1.
        994    1    1    2    0    0 -0.16337119622E+02  0.34405720609E+02  0.72294691955E+01  0.17553449893E+03  0.17120000000E+03 0.  0.
        998    1    1    2    0    0  0.54281592870E+01 -0.39749112323E+02  0.14619908671E+04  0.14625753834E+04  0.10000000000E+02 0. -1.
</event>
<event>
 5    1  0.1533416E-008  0.3843715E+03  0.7957747E-01  0.3432342E+00
         13   -1    0    0    0    0  0.00000000000E+00  0.00000000000E+00  0.14999999963E+04  0.15000000000E+04  0.10566000000E+00 0.  1.
        994   -1    0    0    0    0 -0.00000000000E+00 -0.00000000000E+00  0.11368683772E-12  0.17120000000E+03  0.17120000000E+03 0.  0.
         13    1    1    2    0    0  0.16786521088E+02 -0.52989341748E+01  0.83692901711E+02  0.85524142524E+02  0.10566000000E+00 0.  1.
        994    1    1    2    0    0 -0.30414717296E+01  0.23434966149E+01  0.19910907322E+01  0.17125462612E+03  0.17120000000E+03 0.  0.
        998    1    1    2    0    0 -0.13745049359E+02  0.29554375598E+01  0.14143160038E+04  0.14144212314E+04  0.10000000000E+02 0.  1.
</event>
<event>
 5    1  0.1533416E-008  0.3758810E+03  0.7957747E-01  0.3469292E+00
         13   -1    0    0    0    0  0.00000000000E+00  0.00000000000E+00  0.14999999963E+04  0.15000000000E+04  0.10566000000E+00 0. -1.
        994   -1    0    0    0    0 -0.00000000000E+00 -0.00000000000E+00  0.11368683772E-12  0.17120000000E+03  0.17120000000E+03 0.  0.
         13    1    1    2    0    0 -0.36803748440E+02 -0.52140081283E+01  0.42648898263E+02  0.56574212032E+02  0.10566000000E+00 0. -1.
        994    1    1    2    0    0  0.34458663654E+02  0.82553760665E+01  0.18577960571E+02  0.17581277358E+03  0.17120000000E+03 0.  0.
        998    1    1    2    0    0  0.23450847860E+01 -0.30413679381E+01  0.14387731374E+04  0.14388130144E+04  0.10000000000E+02 0. -1.
</event>
<event>
 5    1  0.1533416E-008  0.3803934E+03  0.7957747E-01  0.3449447E+00
         13   -1    0    0    0    0  0.00000000000E+00  0.00000000000E+00  0.14999999963E+04  0.15000000000E+04  0.10566000000E+00 0. -1.
        994   -1    0    0    0    0 -0.00000000000E+00 -0.00000000000E+00  0.11368683772E-12  0.17120000000E+03  0.17120000000E+03 0.  0.
         13    1    1    2    0    0 -0.39371667136E+02  0.18371749266E+02  0.20575775334E+03  0.21029482535E+03  0.10566000000E+00 0. -1.
        994    1    1    2    0    0  0.39334421661E+02 -0.21508386961E+02  0.10673903023E+02  0.17729404853E+03  0.17120000000E+03 0.  0.
        998    1    1    2    0    0  0.37245474959E-01  0.31366376951E+01  0.12835683399E+04  0.12836111261E+04  0.10000000000E+02 0. -1.
</event>
<event>
 5    1  0.1533416E-008  0.3714938E+03  0.7957747E-01  0.3489053E+00
         13   -1    0    0    0    0  0.00000000000E+00  0.00000000000E+00  0.14999999963E+04  0.15000000000E+04  0.10566000000E+00 0.  1.
        994   -1    0    0    0    0 -0.00000000000E+00 -0.00000000000E+00  0.11368683772E-12  0.17120000000E+03  0.17120000000E+03 0.  0.
         13    1    1    2    0    0  0.15206790311E+03  0.11632299993E+03  0.92589019941E+03  0.94547784744E+03  0.10566000000E+00 0.  1.
        994    1    1    2    0    0 -0.14741463299E+03 -0.96686594175E+02  0.12437399247E+03  0.27542276869E+03  0.17120000000E+03 0.  0.
        998    1    1    2    0    0 -0.46532701240E+01 -0.19636405752E+02  0.44973580439E+03  0.45029938386E+03  0.10000000000E+02 0. -1.
</event>
<event>
 5    1  0.1533416E-008  0.3685070E+03  0.7957747E-01  0.3502781E+00
         13   -1    0    0    0    0  0.00000000000E+00  0.00000000000E+00  0.14999999963E+04  0.15000000000E+04  0.10566000000E+00 0. -1.
        994   -1    0    0    0    0 -0.00000000000E+00 -0.00000000000E+00  0.11368683772E-12  0.17120000000E+03  0.17120000000E+03 0.  0.
         13    1    1    2    0    0  0.14660262349E+02  0.37793954539E+02  0.75071443132E+02  0.85317284473E+02  0.10566000000E+00 0. -1.
        994    1    1    2    0    0 -0.10505220780E+02 -0.33601107800E+02  0.14474185204E+02  0.17538054666E+03  0.17120000000E+03 0.  0.
        998    1    1    2    0    0 -0.41550415698E+01 -0.41928467390E+01  0.14104543679E+04  0.14105021689E+04  0.10000000000E+02 0. -1.
</event>
<event>
 5    1  0.1533416E-008  0.3841030E+03  0.7957747E-01  0.3433485E+00
         13   -1    0    0    0    0  0.00000000000E+00  0.00000000000E+00  0.14999999963E+04  0.15000000000E+04  0.10566000000E+00 0.  1.
        994   -1    0    0    0    0 -0.00000000000E+00 -0.00000000000E+00  0.11368683772E-12  0.17120000000E+03  0.17120000000E+03 0.  0.
         13    1    1    2    0    0 -0.84909381657E+01  0.60494654352E+01  0.26099610967E+02  0.28105033706E+02  0.10566000000E+00 0.  1.
        994    1    1    2    0    0  0.57602671872E+01  0.49492487922E+01  0.22663760682E+01  0.17138334867E+03  0.17120000000E+03 0.  0.
        998    1    1    2    0    0  0.27306709785E+01 -0.10998714227E+02  0.14716340092E+04  0.14717116176E+04  0.10000000000E+02 0.  1.
</event>
<event>
 5    1  0.1533416E-008  0.3820461E+03  0.7957747E-01  0.3442297E+00
         13   -1    0    0    0    0  0.00000000000E+00  0.00000000000E+00  0.14999999963E+04  0.15000000000E+04  0.10566000000E+00 0. -1.
        994   -1    0    0    0    0 -0.00000000000E+00 -0.00000000000E+00  0.11368683772E-12  0.17120000000E+03  0.17120000000E+03 0.  0.
         13    1    1    2    0    0 -0.18711999250E+02  0.43215852173E+01  0.57462512281E+02  0.60586850854E+02  0.10566000000E+00 0. -1.
        994    1    1    2    0    0  0.15541615763E+02 -0.37489733504E+01  0.39529967462E+01  0.17199029858E+03  0.17120000000E+03 0.  0.
        998    1    1    2    0    0  0.31703834869E+01 -0.57261186692E+00  0.14385844873E+04  0.14386228506E+04  0.10000000000E+02 0. -1.
</event>
<event>
 5    1  0.1533416E-008  0.3734327E+03  0.7957747E-01  0.3480262E+00
         13   -1    0    0    0    0  0.00000000000E+00  0.00000000000E+00  0.14999999963E+04  0.15000000000E+04  0.10566000000E+00 0.  1.
        994   -1    0    0    0    0 -0.00000000000E+00 -0.00000000000E+00  0.11368683772E-12  0.17120000000E+03  0.17120000000E+03 0.  0.
         13    1    1    2    0    0  0.34798133628E+02 -0.19051019896E+02  0.89757906478E+02  0.98134318169E+02  0.10566000000E+00 0.  1.
        994    1    1    2    0    0 -0.55981731284E+02  0.20343937016E+02  0.19708309149E+02  0.18233399974E+03  0.17120000000E+03 0.  0.
        998    1    1    2    0    0  0.21183597656E+02 -0.12929171202E+01  0.13905337807E+04  0.13907316821E+04  0.10000000000E+02 0.  1.
</event>
<event>
 5    1  0.1533416E-008  0.3851394E+03  0.7957747E-01  0.3429081E+00
         13   -1    0    0    0    0  0.00000000000E+00  0.00000000000E+00  0.14999999963E+04  0.15000000000E+04  0.10566000000E+00 0. -1.
        994   -1    0    0    0    0 -0.00000000000E+00 -0.00000000000E+00  0.11368683772E-12  0.17120000000E+03  0.17120000000E+03 0.  0.
         13    1    1    2    0    0  0.10784602920E+02 -0.76557556842E+01  0.57169950447E+02  0.58679916951E+02  0.10566000000E+00 0. -1.
        994    1    1    2    0    0 -0.39151702257E+01  0.42414723157E+01  0.16704990512E+01  0.17130542669E+03  0.17120000000E+03 0.  0.
        998    1    1    2    0    0 -0.68694326938E+01  0.34142833685E+01  0.14411595468E+04  0.14412146564E+04  0.10000000000E+02 0. -1.
</event>
<event>
 5    1  0.1533416E-008  0.3814498E+03  0.7957747E-01  0.3444870E+00
         13   -1    0    0    0    0  0.00000000000E+00  0.00000000000E+00  0.14999999963E+04  0.15000000000E+04  0.10566000000E+00 0.  1.
        994   -1    0    0    0    0 -0.00000000000E+00 -0.00000000000E+00  0.11368683772E-12  0.17120000000E+03  0.17120000000E+03 0.  0.
         13    1    1    2    0    0 -0.18794454812E+02  0.97927639557E+01  0.62649497491E+02  0.66136982525E+02  0.10566000000E+00 0.  1.
        994    1    1    2    0    0  0.20216941117E+02 -0.70563572340E+01  0.49300589032E+01  0.17260435211E+03  0.17120000000E+03 0.  0.
        998    1    1    2    0    0 -0.14224863047E+01 -0.27364067217E+01  0.14324204399E+04  0.14324586654E+04  0.10000000000E+02 0.  1.
</event>
<event>
 5    1  0.1533416E-008  0.3691679E+03  0.7957747E-01  0.3499724E+00
         13   -1    0    0    0    0  0.00000000000E+00  0.00000000000E+00  0.14999999963E+04  0.15000000000E+04  0.10566000000E+00 0. -1.
        994   -1    0    0    0    0 -0.00000000000E+00 -0.00000000000E+00  0.11368683772E-12  0.17120000000E+03  0.17120000000E+03 0.  0.
         13    1    1    2    0    0  0.56306556205E+02  0.69712926563E+02  0.43431315228E+03  0.44346166217E+03  0.10566000000E+00 0. -1.
        994    1    1    2    0    0 -0.12591959126E+02 -0.48424236717E+02  0.18436372826E+02  0.17931202966E+03  0.17120000000E+03 0.  0.
        998    1    1    2    0    0 -0.43714597079E+02 -0.21288689846E+02  0.10472504712E+04  0.10484263082E+04  0.10000000000E+02 0. -1.
</event>
<event>
 5    1  0.2393682E-008  0.3860367E+03  0.7957747E-01  0.3425287E+00
         13   -1    0    0    0    0  0.00000000000E+00  0.00000000000E+00  0.14999999963E+04  0.15000000000E+04  0.10566000000E+00 0. -1.
        994   -1    0    0    0    0 -0.00000000000E+00 -0.00000000000E+00  0.11368683772E-12  0.17120000000E+03  0.17120000000E+03 0.  0.
         13    1    1    2    0    0 -0.94024127808E+01  0.71682679200E+01  0.65978692860E+02  0.67029758366E+02  0.10566000000E+00 0. -1.
        994    1    1    2    0    0  0.18385917661E+01 -0.20215892996E+01  0.11407691941E+01  0.17122560731E+03  0.17120000000E+03 0.  0.
        998    1    1    2    0    0  0.75638210147E+01 -0.51466786203E+01  0.14328805342E+04  0.14329446343E+04  0.10000000000E+02 0. -1.
</event>
<event>
 5    1  0.1533416E-008  0.3822563E+03  0.7957747E-01  0.3441393E+00
         13   -1    0    0    0    0  0.00000000000E+00  0.00000000000E+00  0.14999999963E+04  0.15000000000E+04  0.10566000000E+00 0.  1.
        994   -1    0    0    0    0 -0.00000000000E+00 -0.00000000000E+00  0.11368683772E-12  0.17120000000E+03  0.17120000000E+03 0.  0.
         13    1    1    2    0    0 -0.31386082110E+01  0.11243965480E+02  0.21485410334E+02  0.24452231851E+02  0.10566000000E+00 0.  1.
        994    1    1    2    0    0  0.53403296259E+00 -0.96330367901E+01  0.33074161847E+01  0.17150352647E+03  0.17120000000E+03 0.  0.
        998    1    1    2    0    0  0.26045752484E+01 -0.16109286904E+01  0.14752071698E+04  0.14752442417E+04  0.10000000000E+02 0.  1.
</event>
<event>
 5    1  0.1533416E-008  0.3768065E+03  0.7957747E-01  0.3465183E+00
         13   -1    0    0    0    0  0.00000000000E+00  0.00000000000E+00  0.14999999963E+04  0.15000000000E+04  0.10566000000E+00 0.  1.
        994   -1    0    0    0    0 -0.00000000000E+00 -0.00000000000E+00  0.11368683772E-12  0.17120000000E+03  0.17120000000E+03 0.  0.
         13    1    1    2    0    0  0.30103783618E+02 -0.30280295577E+02  0.14653633509E+03  0.15263041229E+03  0.10566000000E+00 0.  1.
        994    1    1    2    0    0 -0.28408170636E+02  0.24450414045E+02  0.10515112832E+02  0.17557008431E+03  0.17120000000E+03 0.  0.
        998    1    1    2    0    0 -0.16956129818E+01  0.58298815318E+01  0.13429485484E+04  0.13429995034E+04  0.10000000000E+02 0.  1.
</event>
<event>
 5    1  0.1533416E-008  0.3845491E+03  0.7957747E-01  0.3431587E+00
         13   -1    0    0    0    0  0.00000000000E+00  0.00000000000E+00  0.14999999963E+04  0.15000000000E+04  0.10566000000E+00 0.  1.
        994   -1    0    0    0    0 -0.00000000000E+00 -0.00000000000E+00  0.11368683772E-12  0.17120000000E+03  0.17120000000E+03 0.  0.
         13    1    1    2    0    0  0.10044541135E+02 -0.68221315927E+01  0.40690256773E+02  0.42463424807E+02  0.10566000000E+00 0.  1.
        994    1    1    2    0    0 -0.99674788169E+00  0.15143388160E+01  0.18649745538E+01  0.17121975604E+03  0.17120000000E+03 0.  0.
        998    1    1    2    0    0 -0.90477932531E+01  0.53077927767E+01  0.14574447650E+04  0.14575168192E+04  0.10000000000E+02 0.  1.
</event>
<event>
 5    1  0.1533416E-008  0.3839383E+03  0.7957747E-01  0.3434187E+00
         13   -1    0    0    0    0  0.00000000000E+00  0.00000000000E+00  0.14999999963E+04  0.15000000000E+04  0.10566000000E+00 0. -1.
        994   -1    0    0    0    0 -0.00000000000E+00 -0.00000000000E+00  0.11368683772E-12  0.17120000000E+03  0.17120000000E+03 0.  0.
         13    1    1    2    0    0 -0.41692273431E+01 -0.24156146269E+02  0.13236119012E+03  0.13461202648E+03  0.10566000000E+00 0. -1.
        994    1    1    2    0    0  0.27867817368E+01  0.20724111499E+02  0.36024258971E+01  0.17250991978E+03  0.17120000000E+03 0.  0.
        998    1    1    2    0    0  0.13824456063E+01  0.34320347700E+01  0.13640363803E+04  0.13640780537E+04  0.10000000000E+02 0. -1.
</event>
<event>
 5    1  0.1533416E-008  0.3801572E+03  0.7957747E-01  0.3450474E+00
         13   -1    0    0    0    0  0.00000000000E+00  0.00000000000E+00  0.14999999963E+04  0.15000000000E+04  0.10566000000E+00 0.  1.
        994   -1    0    0    0    0 -0.00000000000E+00 -0.00000000000E+00  0.11368683772E-12  0.17120000000E+03  0.17120000000E+03 0.  0.
         13    1    1    2    0    0 -0.21567195475E+02  0.30927360769E+02  0.15278277054E+03  0.15736655204E+03  0.10566000000E+00 0.  1.
        994    1    1    2    0    0  0.37230992221E+02 -0.26335951711E+02  0.11034043327E+02  0.17751315232E+03  0.17120000000E+03 0.  0.
        998    1    1    2    0    0 -0.15663796745E+02 -0.45914090584E+01  0.13361831824E+04  0.13363202956E+04  0.10000000000E+02 0.  1.
</event>
<event>
 5    1  0.1533416E-008  0.3735123E+03  0.7957747E-01  0.3479903E+00
         13   -1    0    0    0    0  0.00000000000E+00  0.00000000000E+00  0.14999999963E+04  0.15000000000E+04  0.10566000000E+00 0.  1.
        994   -1    0    0    0    0 -0.00000000000E+00 -0.00000000000E+00  0.11368683772E-12  0.17120000000E+03  0.17120000000E+03 0.  0.
         13    1    1    2    0    0 -0.11955123392E+03  0.13494925604E+03  0.78860758930E+03  0.80895348464E+03  0.10566000000E+00 0.  1.
        994    1    1    2    0    0  0.10869056698E+03 -0.15329398438E+03  0.13969326707E+03  0.29006263783E+03  0.17120000000E+03 0.  0.
        998    1    1    2    0    0  0.10860666941E+02  0.18344728334E+02  0.57169913991E+03  0.57218387754E+03  0.10000000000E+02 0. -1.
</event>
<event>
 5    1  0.1533416E-008  0.3777293E+03  0.7957747E-01  0.3461105E+00
         13   -1    0    0    0    0  0.00000000000E+00  0.00000000000E+00  0.14999999963E+04  0.15000000000E+04  0.10566000000E+00 0.  1.
        994   -1    0    0    0    0 -0.00000000000E+00 -0.00000000000E+00  0.11368683772E-12  0.17120000000E+03  0.17120000000E+03 0.  0.
         13    1    1    2    0    0 -0.90577616403E+01  0.16935797447E+02  0.32873299139E+02  0.38072683664E+02  0.10566000000E+00 0.  1.
        994    1    1    2    0    0  0.63439292349E+01 -0.10163059848E+02  0.57673754305E+01  0.17171556669E+03  0.17120000000E+03 0.  0.
        998    1    1    2    0    0  0.27138324054E+01 -0.67727375990E+01  0.14613593217E+04  0.14614117496E+04  0.10000000000E+02 0.  1.
</event>
<event>
 5    1  0.1533416E-008  0.3691642E+03  0.7957747E-01  0.3499741E+00
         13   -1    0    0    0    0  0.00000000000E+00  0.00000000000E+00  0.14999999963E+04  0.15000000000E+04  0.10566000000E+00 0. -1.
        994   -1    0    0    0    0 -0.00000000000E+00 -0.00000000000E+00  0.11368683772E-12  0.17120000000E+03  0.17120000000E+03 0.  0.
         13    1    1    2    0    0  0.59598778688E+02  0.39177567592E+02  0.22049917620E+03  0.23174726339E+03  0.10566000000E+00 0. -1.
        994    1    1    2    0    0 -0.32658049086E+02 -0.84625043800E+02  0.38806592554E+02  0.19759387094E+03  0.17120000000E+03 0.  0.
        998    1    1    2    0    0 -0.26940729602E+02  0.45447476208E+02  0.12406942275E+04  0.12418588657E+04  0.10000000000E+02 0. -1.
</event>
<event>
 5    1  0.1533416E-008  0.3770512E+03  0.7957747E-01  0.3464100E+00
         13   -1    0    0    0    0  0.00000000000E+00  0.00000000000E+00  0.14999999963E+04  0.15000000000E+04  0.10566000000E+00 0. -1.
        994   -1    0    0    0    0 -0.00000000000E+00 -0.00000000000E+00  0.11368683772E-12  0.17120000000E+03  0.17120000000E+03 0.  0.
         13    1    1    2    0    0 -0.35477190330E+02  0.61132610191E+02  0.40858766876E+03  0.41465614826E+03  0.10566000000E+00 0. -1.
        994    1    1    2    0    0  0.55802984762E+02 -0.26473665567E+02  0.18617708505E+02  0.18295050464E+03  0.17120000000E+03 0.  0.
        998    1    1    2    0    0 -0.20325794431E+02 -0.34658944624E+02  0.10727946190E+04  0.10735933471E+04  0.10000000000E+02 0.  1.
</event>
<event>
 5    1  0.1533416E-008  0.3229220E+03  0.7957747E-01  0.3744849E+00
         13   -1    0    0    0    0  0.00000000000E+00  0.00000000000E+00  0.14999999963E+04  0.15000000000E+04  0.10566000000E+00 0.  1.
        994   -1    0    0    0    0 -0.00000000000E+00 -0.00000000000E+00  0.11368683772E-12  0.17120000000E+03  0.17120000000E+03 0.  0.
         13    1    1    2    0    0 -0.20319412123E+03 -0.20288399074E+02  0.91941919365E+03  0.94182330342E+03  0.10566000000E+00 0.  1.
        994    1    1    2    0    0  0.14892004859E+03 -0.53731920567E+02  0.12507596887E+03  0.26460865094E+03  0.17120000000E+03 0.  0.
        998    1    1    2    0    0  0.54274072632E+02  0.74020319641E+02  0.45550483376E+03  0.46476804565E+03  0.10000000000E+02 0.  1.
</event>
<event>
 5    1  0.1533416E-008  0.3800740E+03  0.7957747E-01  0.3450836E+00
         13   -1    0    0    0    0  0.00000000000E+00  0.00000000000E+00  0.14999999963E+04  0.15000000000E+04  0.10566000000E+00 0.  1.
        994   -1    0    0    0    0 -0.00000000000E+00 -0.00000000000E+00  0.11368683772E-12  0.17120000000E+03  0.17120000000E+03 0.  0.
         13    1    1    2    0    0  0.43000438175E+02  0.36213294322E+01  0.25054412910E+03  0.25423320692E+03  0.10566000000E+00 0.  1.
        994    1    1    2    0    0 -0.11905977299E+02 -0.12809294544E+02  0.51185809762E+01  0.17216698346E+03  0.17120000000E+03 0.  0.
        998    1    1    2    0    0 -0.31094460876E+02  0.91879651117E+01  0.12443372862E+04  0.12447998096E+04  0.10000000000E+02 0.  1.
</event>
<event>
 5    1  0.1533416E-008  0.3817678E+03  0.7957747E-01  0.3443497E+00
         13   -1    0    0    0    0  0.00000000000E+00  0.00000000000E+00  0.14999999963E+04  0.15000000000E+04  0.10566000000E+00 0.  1.
        994   -1    0    0    0    0 -0.00000000000E+00 -0.00000000000E+00  0.11368683772E-12  0.17120000000E+03  0.17120000000E+03 0.  0.
         13    1    1    2    0    0  0.18302060236E+02  0.21112589693E+02  0.11263540238E+03  0.11604935108E+03  0.10566000000E+00 0.  1.
        994    1    1    2    0    0 -0.20255599550E+02 -0.17444840790E+02  0.56220603951E+01  0.17336568099E+03  0.17120000000E+03 0.  0.
        998    1    1    2    0    0  0.19535393142E+01 -0.36677489036E+01  0.13817425335E+04  0.13817849679E+04  0.10000000000E+02 0.  1.
</event>
<event>
 5    1  0.1533416E-008  0.3845156E+03  0.7957747E-01  0.3431729E+00
         13   -1    0    0    0    0  0.00000000000E+00  0.00000000000E+00  0.14999999963E+04  0.15000000000E+04  0.10566000000E+00 0.  1.
        994   -1    0    0    0    0 -0.00000000000E+00 -0.00000000000E+00  0.11368683772E-12  0.17120000000E+03  0.17120000000E+03 0.  0.
         13    1    1    2    0    0 -0.53773558493E+01  0.14929239333E+02  0.71085237065E+02  0.72834883371E+02  0.10566000000E+00 0.  1.
        994    1    1    2    0    0 -0.60036769656E+01 -0.33995950805E+01  0.20276110920E+01  0.17135096320E+03  0.17120000000E+03 0.  0.
        998    1    1    2    0    0  0.11381032815E+02 -0.11529644253E+02  0.14268871481E+04  0.14270141534E+04  0.10000000000E+02 0.  1.
</event>
<event>
 5    1  0.1533416E-008  0.3836709E+03  0.7957747E-01  0.3435329E+00
         13   -1    0    0    0    0  0.00000000000E+00  0.00000000000E+00  0.14999999963E+04  0.15000000000E+04  0.10566000000E+00 0. -1.
        994   -1    0    0    0    0 -0.00000000000E+00 -0.00000000000E+00  0.11368683772E-12  0.17120000000E+03  0.17120000000E+03 0.  0.
         13    1    1    2    0    0 -0.60467589096E+01  0.15346320288E+02  0.81405255861E+02  0.83059615250E+02  0.10566000000E+00 0. -1.
        994    1    1    2    0    0 -0.20466017507E+02  0.34795463296E+02  0.76924449358E+01  0.17606304509E+03  0.17120000000E+03 0.  0.
        998    1    1    2    0    0  0.26512776417E+02 -0.50141783583E+02  0.14109022955E+04  0.14120773397E+04  0.10000000000E+02 0. -1.
</event>
<event>
 5    1  0.1533416E-008  0.3726974E+03  0.7957747E-01  0.3483585E+00
         13   -1    0    0    0    0  0.00000000000E+00  0.00000000000E+00  0.14999999963E+04  0.15000000000E+04  0.10566000000E+00 0. -1.
        994   -1    0    0    0    0 -0.00000000000E+00 -0.00000000000E+00  0.11368683772E-12  0.17120000000E+03  0.17120000000E+03 0.  0.
         13    1    1    2    0    0 -0.13753173217E+03  0.21302946053E+02  0.71988964164E+03  0.73321886239E+03  0.10566000000E+00 0. -1.
        994    1    1    2    0    0  0.12479054380E+03 -0.20149263412E+02  0.64758474294E+02  0.22244498787E+03  0.17120000000E+03 0.  0.
        998    1    1    2    0    0  0.12741188370E+02 -0.11536826412E+01  0.71535188034E+03  0.71553614973E+03  0.10000000000E+02 0.  0.
</event>
<event>
 5    1  0.1533416E-008  0.3772085E+03  0.7957747E-01  0.3463404E+00
         13   -1    0    0    0    0  0.00000000000E+00  0.00000000000E+00  0.14999999963E+04  0.15000000000E+04  0.10566000000E+00 0.  1.
        994   -1    0    0    0    0 -0.00000000000E+00 -0.00000000000E+00  0.11368683772E-12  0.17120000000E+03  0.17120000000E+03 0.  0.
         13    1    1    2    0    0 -0.16716052858E+02  0.27186359754E+02  0.28287804107E+02  0.42646636504E+02  0.10566000000E+00 0.  1.
        994    1    1    2    0    0  0.15735111821E+02 -0.20470916612E+02  0.17197056237E+02  0.17398801946E+03  0.17120000000E+03 0.  0.
        998    1    1    2    0    0  0.98094103702E+00 -0.67154431429E+01  0.14545151359E+04  0.14545653440E+04  0.10000000000E+02 0.  1.
</event>
<event>
 5    1  0.1533416E-008  0.3830628E+03  0.7957747E-01  0.3437930E+00
         13   -1    0    0    0    0  0.00000000000E+00  0.00000000000E+00  0.14999999963E+04  0.15000000000E+04  0.10566000000E+00 0.  1.
        994   -1    0    0    0    0 -0.00000000000E+00 -0.00000000000E+00  0.11368683772E-12  0.17120000000E+03  0.17120000000E+03 0.  0.
         13    1    1    2    0    0 -0.66947430561E+01  0.90913679194E+01  0.24789268581E+02  0.27239521950E+02  0.10566000000E+00 0.  1.
        994    1    1    2    0    0  0.15693092718E+01  0.88922118387E+01  0.28648453329E+01  0.17146189519E+03  0.17120000000E+03 0.  0.
        998    1    1    2    0    0  0.51254337843E+01 -0.17983579758E+02  0.14723458824E+04  0.14724985829E+04  0.10000000000E+02 0.  1.
</event>
<event>
 5    1  0.1533416E-008  0.3716316E+03  0.7957747E-01  0.3488426E+00
         13   -1    0    0    0    0  0.00000000000E+00  0.00000000000E+00  0.14999999963E+04  0.15000000000E+04  0.10566000000E+00 0.  1.
        994   -1    0    0    0    0 -0.00000000000E+00 -0.00000000000E+00  0.11368683772E-12  0.17120000000E+03  0.17120000000E+03 0.  0.
         13    1    1    2    0    0  0.20791063383E+01 -0.19924477338E+02  0.11395393327E+02  0.23047204462E+02  0.10566000000E+00 0.  1.
        994    1    1    2    0    0  0.45614594102E+01  0.30339248514E+02  0.15120893143E+02  0.17458338501E+03  0.17120000000E+03 0.  0.
        998    1    1    2    0    0 -0.66405657485E+01 -0.10414771176E+02  0.14734837098E+04  0.14735694105E+04  0.10000000000E+02 0.  1.
</event>
<event>
 5    1  0.1533416E-008  0.3695451E+03  0.7957747E-01  0.3497984E+00
         13   -1    0    0    0    0  0.00000000000E+00  0.00000000000E+00  0.14999999963E+04  0.15000000000E+04  0.10566000000E+00 0. -1.
        994   -1    0    0    0    0 -0.00000000000E+00 -0.00000000000E+00  0.11368683772E-12  0.17120000000E+03  0.17120000000E+03 0.  0.
         13    1    1    2    0    0  0.86760309303E+02 -0.14232725380E+03  0.69278296455E+03  0.71255360891E+03  0.10566000000E+00 0. -1.
        994    1    1    2    0    0 -0.74331470110E+02  0.15053916309E+03  0.11453963343E+03  0.26573666420E+03  0.17120000000E+03 0.  0.
        998    1    1    2    0    0 -0.12428839193E+02 -0.82119092979E+01  0.69267739830E+03  0.69290972689E+03  0.10000000000E+02 0. -1.
</event>
<event>
 5    1  0.1533416E-008  0.3729513E+03  0.7957747E-01  0.3482436E+00
         13   -1    0    0    0    0  0.00000000000E+00  0.00000000000E+00  0.14999999963E+04  0.15000000000E+04  0.10566000000E+00 0. -1.
        994   -1    0    0    0    0 -0.00000000000E+00 -0.00000000000E+00  0.11368683772E-12  0.17120000000E+03  0.17120000000E+03 0.  0.
         13    1    1    2    0    0 -0.60197805816E+02  0.26777923674E+02  0.31578059774E+03  0.32258057923E+03  0.10566000000E+00 0. -1.
        994    1    1    2    0    0  0.21828949569E+02 -0.20630219657E+01  0.93818424999E+01  0.17285316910E+03  0.17120000000E+03 0.  0.
        998    1    1    2    0    0  0.38368856248E+02 -0.24714901708E+02  0.11748375560E+04  0.11757662517E+04  0.10000000000E+02 0. -1.
</event>
<event>
 5    1  0.1533416E-008  0.3729044E+03  0.7957747E-01  0.3482649E+00
         13   -1    0    0    0    0  0.00000000000E+00  0.00000000000E+00  0.14999999963E+04  0.15000000000E+04  0.10566000000E+00 0.  1.
        994   -1    0    0    0    0 -0.00000000000E+00 -0.00000000000E+00  0.11368683772E-12  0.17120000000E+03  0.17120000000E+03 0.  0.
         13    1    1    2    0    0  0.11178861603E+02 -0.70250816683E+01  0.77711189033E+01  0.15320580023E+02  0.10566000000E+00 0.  1.
        994    1    1    2    0    0 -0.48710694291E+01  0.45294812553E+01  0.79103239471E+01  0.17151168107E+03  0.17120000000E+03 0.  0.
        998    1    1    2    0    0 -0.63077921739E+01  0.24956004129E+01  0.14843185534E+04  0.14843677389E+04  0.10000000000E+02 0.  1.
</event>
<event>
 5    1  0.1533416E-008  0.3757527E+03  0.7957747E-01  0.3469863E+00
         13   -1    0    0    0    0  0.00000000000E+00  0.00000000000E+00  0.14999999963E+04  0.15000000000E+04  0.10566000000E+00 0. -1.
        994   -1    0    0    0    0 -0.00000000000E+00 -0.00000000000E+00  0.11368683772E-12  0.17120000000E+03  0.17120000000E+03 0.  0.
         13    1    1    2    0    0  0.52807522144E+02 -0.33996436254E+02  0.13389209749E+03  0.14789015182E+03  0.10566000000E+00 0. -1.
        994    1    1    2    0    0 -0.23969160264E+02  0.44712185422E+02  0.23253984476E+02  0.18006634323E+03  0.17120000000E+03 0.  0.
        998    1    1    2    0    0 -0.28838361880E+02 -0.10715749169E+02  0.13428539143E+04  0.13432435050E+04  0.10000000000E+02 0. -1.
</event>
<event>
 5    1  0.1533416E-008  0.3835298E+03  0.7957747E-01  0.3435931E+00
         13   -1    0    0    0    0  0.00000000000E+00  0.00000000000E+00  0.14999999963E+04  0.15000000000E+04  0.10566000000E+00 0.  1.
        994   -1    0    0    0    0 -0.00000000000E+00 -0.00000000000E+00  0.11368683772E-12  0.17120000000E+03  0.17120000000E+03 0.  0.
         13    1    1    2    0    0  0.10109081584E+01 -0.11885998373E+02  0.29091657407E+02  0.31442560127E+02  0.10566000000E+00 0.  1.
        994    1    1    2    0    0  0.34601569181E+00  0.10914604372E+02  0.27559579657E+01  0.17157005455E+03  0.17120000000E+03 0.  0.
        998    1    1    2    0    0 -0.13569238502E+01  0.97139400044E+00  0.14681523809E+04  0.14681873853E+04  0.10000000000E+02 0.  0.
</event>
<event>
 5    1  0.1533416E-008  0.3839841E+03  0.7957747E-01  0.3433992E+00
         13   -1    0    0    0    0  0.00000000000E+00  0.00000000000E+00  0.14999999963E+04  0.15000000000E+04  0.10566000000E+00 0. -1.
        994   -1    0    0    0    0 -0.00000000000E+00 -0.00000000000E+00  0.11368683772E-12  0.17120000000E+03  0.17120000000E+03 0.  0.
         13    1    1    2    0    0  0.15545135553E+02  0.13221629024E+02  0.97268264012E+02  0.99386060699E+02  0.10566000000E+00 0. -1.
        994    1    1    2    0    0 -0.10739283235E+02 -0.67815226598E+01  0.26677942425E+01  0.17169122977E+03  0.17120000000E+03 0.  0.
        998    1    1    2    0    0 -0.48058523178E+01 -0.64401063639E+01  0.14000639380E+04  0.14001227095E+04  0.10000000000E+02 0. -1.
</event>
<event>
 5    1  0.1533416E-008  0.3815795E+03  0.7957747E-01  0.3444310E+00
         13   -1    0    0    0    0  0.00000000000E+00  0.00000000000E+00  0.14999999963E+04  0.15000000000E+04  0.10566000000E+00 0.  1.
        994   -1    0    0    0    0 -0.00000000000E+00 -0.00000000000E+00  0.11368683772E-12  0.17120000000E+03  0.17120000000E+03 0.  0.
         13    1    1    2    0    0 -0.57709272161E+01 -0.43586419670E+02  0.23722909938E+03  0.24126901238E+03  0.10566000000E+00 0.  1.
        994    1    1    2    0    0 -0.19464044600E+02  0.52015210224E+02  0.13664152497E+02  0.18050091465E+03  0.17120000000E+03 0.  0.
        998    1    1    2    0    0  0.25234971816E+02 -0.84287905539E+01  0.12491067444E+04  0.12494300730E+04  0.10000000000E+02 0.  1.
</event>
<event>
 5    1  0.1533416E-008  0.3793831E+03  0.7957747E-01  0.3453849E+00
         13   -1    0    0    0    0  0.00000000000E+00  0.00000000000E+00  0.14999999963E+04  0.15000000000E+04  0.10566000000E+00 0.  1.
        994   -1    0    0    0    0 -0.00000000000E+00 -0.00000000000E+00  0.11368683772E-12  0.17120000000E+03  0.17120000000E+03 0.  0.
         13    1    1    2    0    0 -0.39415604075E+02 -0.58008976653E+02  0.13559676175E+03  0.15266015911E+03  0.10566000000E+00 0.  1.
        994    1    1    2    0    0  0.38997596380E+02  0.58576335728E+02  0.34117678230E+02  0.18821651256E+03  0.17120000000E+03 0.  0.
        998    1    1    2    0    0  0.41800769523E+00 -0.56735907510E+00  0.13302855563E+04  0.13303233283E+04  0.10000000000E+02 0.  1.
</event>
<event>
 5    1  0.1533416E-008  0.3851221E+03  0.7957747E-01  0.3429155E+00
         13   -1    0    0    0    0  0.00000000000E+00  0.00000000000E+00  0.14999999963E+04  0.15000000000E+04  0.10566000000E+00 0. -1.
        994   -1    0    0    0    0 -0.00000000000E+00 -0.00000000000E+00  0.11368683772E-12  0.17120000000E+03  0.17120000000E+03 0.  0.
         13    1    1    2    0    0  0.16971937053E+02 -0.61765030296E+00  0.87670853265E+02  0.89300715649E+02  0.10566000000E+00 0. -1.
        994    1    1    2    0    0 -0.17698715125E+02 -0.43756688131E+01  0.26629830621E+01  0.17218862469E+03  0.17120000000E+03 0.  0.
        998    1    1    2    0    0  0.72677807196E+00  0.49933191161E+01  0.14096661600E+04  0.14097106597E+04  0.10000000000E+02 0. -1.
</event>
<event>
 5    1  0.1533416E-008  0.3822367E+03  0.7957747E-01  0.3441477E+00
         13   -1    0    0    0    0  0.00000000000E+00  0.00000000000E+00  0.14999999963E+04  0.15000000000E+04  0.10566000000E+00 0.  1.
        994   -1    0    0    0    0 -0.00000000000E+00 -0.00000000000E+00  0.11368683772E-12  0.17120000000E+03  0.17120000000E+03 0.  0.
         13    1    1    2    0    0 -0.26759370817E+02 -0.93728768656E+01  0.15482873554E+03  0.15740350460E+03  0.10566000000E+00 0.  1.
        994    1    1    2    0    0 -0.12063836669E+01 -0.64403847176E+01  0.31508202926E+01  0.17135431592E+03  0.17120000000E+03 0.  0.
        998    1    1    2    0    0  0.27965754484E+02  0.15813261583E+02  0.13420204404E+04  0.13424421795E+04  0.10000000000E+02 0.  1.
</event>
<event>
 5    1  0.1533416E-008  0.3856958E+03  0.7957747E-01  0.3426726E+00
         13   -1    0    0    0    0  0.00000000000E+00  0.00000000000E+00  0.14999999963E+04  0.15000000000E+04  0.10566000000E+00 0. -1.
        994   -1    0    0    0    0 -0.00000000000E+00 -0.00000000000E+00  0.11368683772E-12  0.17120000000E+03  0.17120000000E+03 0.  0.
         13    1    1    2    0    0 -0.12599761404E+02  0.45892418906E+01  0.77680264260E+02  0.78829244244E+02  0.10566000000E+00 0. -1.
        994    1    1    2    0    0 -0.55239956824E+01 -0.52974151582E+01  0.14772851537E+01  0.17137735996E+03  0.17120000000E+03 0.  0.
        998    1    1    2    0    0  0.18123757087E+02  0.70817326760E+00  0.14208424469E+04  0.14209933958E+04  0.10000000000E+02 0. -1.
</event>
<event>
 5    1  0.1533416E-008  0.3783774E+03  0.7957747E-01  0.3458254E+00
         13   -1    0    0    0    0  0.00000000000E+00  0.00000000000E+00  0.14999999963E+04  0.15000000000E+04  0.10566000000E+00 0.  1.
        994   -1    0    0    0    0 -0.00000000000E+00 -0.00000000000E+00  0.11368683772E-12  0.17120000000E+03  0.17120000000E+03 0.  0.
         13    1    1    2    0    0 -0.24362916319E+02 -0.32546372724E+02  0.15805312183E+03  0.16319809605E+03  0.10566000000E+00 0.  1.
        994    1    1    2    0    0  0.27030355791E+02  0.18758974022E+02  0.86014375659E+01  0.17454501989E+03  0.17120000000E+03 0.  0.
        998    1    1    2    0    0 -0.26674394724E+01  0.13787398702E+02  0.13333454369E+04  0.13334568841E+04  0.10000000000E+02 0.  1.
</event>
<event>
 5    1  0.1533416E-008  0.3784948E+03  0.7957747E-01  0.3457739E+00
         13   -1    0    0    0    0  0.00000000000E+00  0.00000000000E+00  0.14999999963E+04  0.15000000000E+04  0.10566000000E+00 0. -1.
        994   -1    0    0    0    0 -0.00000000000E+00 -0.00000000000E+00  0.11368683772E-12  0.17120000000E+03  0.17120000000E+03 0.  0.
         13    1    1    2    0    0  0.15911517619E+02 -0.91137130380E+01  0.33834943086E+02  0.38484421471E+02  0.10566000000E+00 0. -1.
        994    1    1    2    0    0  0.78190206028E+01  0.94126425995E+01  0.53980891700E+01  0.17172161859E+03  0.17120000000E+03 0.  0.
        998    1    1    2    0    0 -0.23730538222E+02 -0.29892956147E+00  0.14607669640E+04  0.14609939599E+04  0.10000000000E+02 0. -1.
</event>
<event>
 5    1  0.1533416E-008  0.3858692E+03  0.7957747E-01  0.3425994E+00
         13   -1    0    0    0    0  0.00000000000E+00  0.00000000000E+00  0.14999999963E+04  0.15000000000E+04  0.10566000000E+00 0. -1.
        994   -1    0    0    0    0 -0.00000000000E+00 -0.00000000000E+00  0.11368683772E-12  0.17120000000E+03  0.17120000000E+03 0.  0.
         13    1    1    2    0    0  0.69240327005E+01 -0.91916457910E+01  0.52429857140E+02  0.53678018452E+02  0.10566000000E+00 0. -1.
        994    1    1    2    0    0 -0.18104097291E+02  0.79595960532E+01  0.24828985559E+01  0.17235637004E+03  0.17120000000E+03 0.  0.
        998    1    1    2    0    0  0.11180064590E+02  0.12320497378E+01  0.14450872406E+04  0.14451656115E+04  0.10000000000E+02 0. -1.
</event>
<event>
 5    1  0.1533416E-008  0.3694272E+03  0.7957747E-01  0.3498528E+00
         13   -1    0    0    0    0  0.00000000000E+00  0.00000000000E+00  0.14999999963E+04  0.15000000000E+04  0.10566000000E+00 0.  1.
        994   -1    0    0    0    0 -0.00000000000E+00 -0.00000000000E+00  0.11368683772E-12  0.17120000000E+03  0.17120000000E+03 0.  0.
         13    1    1    2    0    0  0.72170202277E+01  0.18647236874E+02  0.13965587381E+02  0.24389621131E+02  0.10566000000E+00 0.  1.
        994    1    1    2    0    0 -0.83676955393E+01 -0.18854815273E+02  0.12122270159E+02  0.17286385343E+03  0.17120000000E+03 0.  0.
        998    1    1    2    0    0  0.11506753116E+01  0.20757839926E+00  0.14739121387E+04  0.14739465254E+04  0.10000000000E+02 0.  1.
</event>
<event>
 5    1  0.1533416E-008  0.3692119E+03  0.7957747E-01  0.3499521E+00
         13   -1    0    0    0    0  0.00000000000E+00  0.00000000000E+00  0.14999999963E+04  0.15000000000E+04  0.10566000000E+00 0.  1.
        994   -1    0    0    0    0 -0.00000000000E+00 -0.00000000000E+00  0.11368683772E-12  0.17120000000E+03  0.17120000000E+03 0.  0.
         13    1    1    2    0    0  0.52464165765E+02 -0.46549904429E+02  0.21015891064E+03  0.22155396899E+03  0.10566000000E+00 0.  1.
        994    1    1    2    0    0 -0.57573535061E+02  0.48457886257E+02  0.29580413178E+02  0.18933388372E+03  0.17120000000E+03 0.  0.
        998    1    1    2    0    0  0.51093692957E+01 -0.19079818283E+01  0.12602606725E+04  0.12603121473E+04  0.10000000000E+02 0.  1.
</event>
<event>
 5    1  0.1533416E-008  0.3821131E+03  0.7957747E-01  0.3442009E+00
         13   -1    0    0    0    0  0.00000000000E+00  0.00000000000E+00  0.14999999963E+04  0.15000000000E+04  0.10566000000E+00 0.  1.
        994   -1    0    0    0    0 -0.00000000000E+00 -0.00000000000E+00  0.11368683772E-12  0.17120000000E+03  0.17120000000E+03 0.  0.
         13    1    1    2    0    0 -0.77303890344E+02  0.10834058203E+02  0.16601286769E+03  0.18344904383E+03  0.10566000000E+00 0.  1.
        994    1    1    2    0    0  0.53374763035E+02 -0.76773204726E+01  0.28189220212E+02  0.18169171339E+03  0.17120000000E+03 0.  0.
        998    1    1    2    0    0  0.23929127309E+02 -0.31567377307E+01  0.13057979084E+04  0.13060592428E+04  0.10000000000E+02 0.  1.
</event>
<event>
 5    1  0.1533416E-008  0.3827394E+03  0.7957747E-01  0.3439316E+00
         13   -1    0    0    0    0  0.00000000000E+00  0.00000000000E+00  0.14999999963E+04  0.15000000000E+04  0.10566000000E+00 0.  1.
        994   -1    0    0    0    0 -0.00000000000E+00 -0.00000000000E+00  0.11368683772E-12  0.17120000000E+03  0.17120000000E+03 0.  0.
         13    1    1    2    0    0 -0.24145164581E+02  0.73356918125E+00  0.94461886260E+02  0.97501724171E+02  0.10566000000E+00 0.  1.
        994    1    1    2    0    0  0.32859047751E+02 -0.29262679307E+02  0.91971961693E+01  0.17700296562E+03  0.17120000000E+03 0.  0.
        998    1    1    2    0    0 -0.87138831704E+01  0.28529110125E+02  0.13963409138E+04  0.13966953102E+04  0.10000000000E+02 0.  1.
</event>
<event>
 5    1  0.1533416E-008  0.3771457E+03  0.7957747E-01  0.3463682E+00
         13   -1    0    0    0    0  0.00000000000E+00  0.00000000000E+00  0.14999999963E+04  0.15000000000E+04  0.10566000000E+00 0. -1.
        994   -1    0    0    0    0 -0.00000000000E+00 -0.00000000000E+00  0.11368683772E-12  0.17120000000E+03  0.17120000000E+03 0.  0.
         13    1    1    2    0    0  0.13441541386E+02 -0.54684707308E+01  0.15631698032E+02  0.21329330846E+02  0.10566000000E+00 0. -1.
        994    1    1    2    0    0 -0.25528614280E+02  0.19532477999E+02  0.90758087884E+01  0.17442774478E+03  0.17120000000E+03 0.  0.
        998    1    1    2    0    0  0.12087072894E+02 -0.14064007268E+02  0.14752924895E+04  0.14754429244E+04  0.10000000000E+02 0. -1.
</event>
<event>
 5    1  0.1533416E-008  0.3860056E+03  0.7957747E-01  0.3425419E+00
         13   -1    0    0    0    0  0.00000000000E+00  0.00000000000E+00  0.14999999963E+04  0.15000000000E+04  0.10566000000E+00 0. -1.
        994   -1    0    0    0    0 -0.00000000000E+00 -0.00000000000E+00  0.11368683772E-12  0.17120000000E+03  0.17120000000E+03 0.  0.
         13    1    1    2    0    0  0.10308073604E+02  0.12300341458E+01  0.49269471712E+02  0.50351379050E+02  0.10566000000E+00 0. -1.
        994    1    1    2    0    0 -0.45106269769E+01  0.68898859277E+01  0.13540351439E+01  0.17140329546E+03  0.17120000000E+03 0.  0.
        998    1    1    2    0    0 -0.57974466274E+01 -0.81199200735E+01  0.14493764894E+04  0.14494453255E+04  0.10000000000E+02 0. -1.
</event>
<event>
 5    1  0.1533416E-008  0.3739275E+03  0.7957747E-01  0.3478033E+00
         13   -1    0    0    0    0  0.00000000000E+00  0.00000000000E+00  0.14999999963E+04  0.15000000000E+04  0.10566000000E+00 0.  1.
        994   -1    0    0    0    0 -0.00000000000E+00 -0.00000000000E+00  0.11368683772E-12  0.17120000000E+03  0.17120000000E+03 0.  0.
         13    1    1    2    0    0 -0.54934764189E+02 -0.39517718856E+02  0.26115183124E+03  0.26977725728E+03  0.10566000000E+00 0.  1.
        994    1    1    2    0    0  0.59254075179E+02  0.32624865512E+02  0.23004000621E+02  0.18551024586E+03  0.17120000000E+03 0.  0.
        998    1    1    2    0    0 -0.43193109902E+01  0.68928533443E+01  0.12158441644E+04  0.12159124969E+04  0.10000000000E+02 0.  1.
</event>
<event>
 5    1  0.1533416E-008  0.3839788E+03  0.7957747E-01  0.3434015E+00
         13   -1    0    0    0    0  0.00000000000E+00  0.00000000000E+00  0.14999999963E+04  0.15000000000E+04  0.10566000000E+00 0. -1.
        994   -1    0    0    0    0 -0.00000000000E+00 -0.00000000000E+00  0.11368683772E-12  0.17120000000E+03  0.17120000000E+03 0.  0.
         13    1    1    2    0    0 -0.13795658542E+02  0.63150743514E+01  0.55492460190E+02  0.57529337391E+02  0.10566000000E+00 0. -1.
        994    1    1    2    0    0  0.19836746992E+01 -0.17819570089E+01  0.21614335669E+01  0.17123440697E+03  0.17120000000E+03 0.  0.
        998    1    1    2    0    0  0.11811983843E+02 -0.45331173425E+01  0.14423461025E+04  0.14424362556E+04  0.10000000000E+02 0. -1.
</event>
<event>
 5    1  0.1533416E-008  0.3814108E+03  0.7957747E-01  0.3445039E+00
         13   -1    0    0    0    0  0.00000000000E+00  0.00000000000E+00  0.14999999963E+04  0.15000000000E+04  0.10566000000E+00 0.  1.
        994   -1    0    0    0    0 -0.00000000000E+00 -0.00000000000E+00  0.11368683772E-12  0.17120000000E+03  0.17120000000E+03 0.  0.
         13    1    1    2    0    0 -0.13295486246E+02  0.40868587242E+01  0.26737451674E+02  0.30139257702E+02  0.10566000000E+00 0.  1.
        994    1    1    2    0    0  0.63083576481E+01 -0.20057993316E+02  0.48951782134E+01  0.17255584963E+03  0.17120000000E+03 0.  0.
        998    1    1    2    0    0  0.69871285975E+01  0.15971134592E+02  0.14683673664E+04  0.14685048927E+04  0.10000000000E+02 0.  1.
</event>
<event>
 5    1  0.1533416E-008  0.3820060E+03  0.7957747E-01  0.3442470E+00
         13   -1    0    0    0    0  0.00000000000E+00  0.00000000000E+00  0.14999999963E+04  0.15000000000E+04  0.10566000000E+00 0.  1.
        994   -1    0    0    0    0 -0.00000000000E+00 -0.00000000000E+00  0.11368683772E-12  0.17120000000E+03  0.17120000000E+03 0.  0.
         13    1    1    2    0    0  0.21589049995E+02 -0.25297577705E+02  0.13467410582E+03  0.13871979116E+03  0.10566000000E+00 0.  1.
        994    1    1    2    0    0 -0.29171599801E+02  0.55362437941E+02  0.16239378481E+02  0.18300038028E+03  0.17120000000E+03 0.  0.
        998    1    1    2    0    0  0.75825498057E+01 -0.30064860237E+02  0.13490865120E+04  0.13494798286E+04  0.10000000000E+02 0.  1.
</event>
<event>
 5    1  0.1533416E-008  0.3710259E+03  0.7957747E-01  0.3491189E+00
         13   -1    0    0    0    0  0.00000000000E+00  0.00000000000E+00  0.14999999963E+04  0.15000000000E+04  0.10566000000E+00 0.  1.
        994   -1    0    0    0    0 -0.00000000000E+00 -0.00000000000E+00  0.11368683772E-12  0.17120000000E+03  0.17120000000E+03 0.  0.
         13    1    1    2    0    0  0.28695678207E+02 -0.12537732682E+03  0.69889871152E+03  0.71063516389E+03  0.10566000000E+00 0.  1.
        994    1    1    2    0    0  0.57979979855E+01  0.10837065427E+03  0.50478178678E+02  0.20889064606E+03  0.17120000000E+03 0.  0.
        998    1    1    2    0    0 -0.34493676192E+02  0.17006672542E+02  0.75062310608E+03  0.75167419005E+03  0.10000000000E+02 0.  1.
</event>
<event>
 5    1  0.1533416E-008  0.3720424E+03  0.7957747E-01  0.3486557E+00
         13   -1    0    0    0    0  0.00000000000E+00  0.00000000000E+00  0.14999999963E+04  0.15000000000E+04  0.10566000000E+00 0. -1.
        994   -1    0    0    0    0 -0.00000000000E+00 -0.00000000000E+00  0.11368683772E-12  0.17120000000E+03  0.17120000000E+03 0.  0.
         13    1    1    2    0    0  0.31097488245E+02 -0.57263544969E+02  0.35058659785E+03  0.35659099976E+03  0.10566000000E+00 0. -1.
        994    1    1    2    0    0 -0.16448076273E+02 -0.10277669421E+02  0.94980586252E+01  0.17255672348E+03  0.17120000000E+03 0.  0.
        998    1    1    2    0    0 -0.14649411972E+02  0.67541214390E+02  0.11399153398E+04  0.11420522768E+04  0.10000000000E+02 0. -1.
</event>
<event>
 5    1  0.1533416E-008  0.3769302E+03  0.7957747E-01  0.3464635E+00
         13   -1    0    0    0    0  0.00000000000E+00  0.00000000000E+00  0.14999999963E+04  0.15000000000E+04  0.10566000000E+00 0. -1.
        994   -1    0    0    0    0 -0.00000000000E+00 -0.00000000000E+00  0.11368683772E-12  0.17120000000E+03  0.17120000000E+03 0.  0.
         13    1    1    2    0    0  0.19741967635E+02  0.40306503409E+00  0.31609096882E+02  0.37270013647E+02  0.10566000000E+00 0. -1.
        994    1    1    2    0    0 -0.17049562208E+02 -0.25713577292E+01  0.66955179834E+01  0.17219631068E+03  0.17120000000E+03 0.  0.
        998    1    1    2    0    0 -0.26924054274E+01  0.21682926951E+01  0.14616953814E+04  0.14617336757E+04  0.10000000000E+02 0. -1.
</event>
<event>
 5    1  0.1533416E-008  0.3767908E+03  0.7957747E-01  0.3465252E+00
         13   -1    0    0    0    0  0.00000000000E+00  0.00000000000E+00  0.14999999963E+04  0.15000000000E+04  0.10566000000E+00 0. -1.
        994   -1    0    0    0    0 -0.00000000000E+00 -0.00000000000E+00  0.11368683772E-12  0.17120000000E+03  0.17120000000E+03 0.  0.
         13    1    1    2    0    0 -0.65066285519E+01 -0.20210382598E+02  0.36543965005E+02  0.42264267676E+02  0.10566000000E+00 0. -1.
        994    1    1    2    0    0  0.11280450864E+01  0.17178941344E+02  0.67640505652E+01  0.17219634401E+03  0.17120000000E+03 0.  0.
        998    1    1    2    0    0  0.53785834654E+01  0.30314412537E+01  0.14566919807E+04  0.14567393883E+04  0.10000000000E+02 0. -1.
</event>
<event>
 5    1  0.1533416E-008  0.3726754E+03  0.7957747E-01  0.3483685E+00
         13   -1    0    0    0    0  0.00000000000E+00  0.00000000000E+00  0.14999999963E+04  0.15000000000E+04  0.10566000000E+00 0. -1.
        994   -1    0    0    0    0 -0.00000000000E+00 -0.00000000000E+00  0.11368683772E-12  0.17120000000E+03  0.17120000000E+03 0.  0.
         13    1    1    2    0    0 -0.20380187736E+02  0.73693943463E+01  0.26832333941E+02  0.34491235610E+02  0.10566000000E+00 0. -1.
        994    1    1    2    0    0  0.14892092173E+02  0.10596362612E+02  0.90226728993E+01  0.17240912370E+03  0.17120000000E+03 0.  0.
        998    1    1    2    0    0  0.54880955633E+01 -0.17965756958E+02  0.14641449894E+04  0.14642996407E+04  0.10000000000E+02 0. -1.
</event>
<event>
 5    1  0.1533416E-008  0.3862028E+03  0.7957747E-01  0.3424587E+00
         13   -1    0    0    0    0  0.00000000000E+00  0.00000000000E+00  0.14999999963E+04  0.15000000000E+04  0.10566000000E+00 0.  1.
        994   -1    0    0    0    0 -0.00000000000E+00 -0.00000000000E+00  0.11368683772E-12  0.17120000000E+03  0.17120000000E+03 0.  0.
         13    1    1    2    0    0 -0.93689012184E+02 -0.56593720777E+02  0.18749727035E+03  0.21710761799E+03  0.10566000000E+00 0.  1.
        994    1    1    2    0    0  0.19346392888E+03  0.15498628976E+02  0.17725356307E+03  0.31368258622E+03  0.17120000000E+03 0.  0.
        998    1    1    2    0    0 -0.99774916691E+02  0.41095091801E+02  0.11352491629E+04  0.11404097958E+04  0.10000000000E+02 0.  1.
</event>
<event>
 5    1  0.1533416E-008  0.3822421E+03  0.7957747E-01  0.3441454E+00
         13   -1    0    0    0    0  0.00000000000E+00  0.00000000000E+00  0.14999999963E+04  0.15000000000E+04  0.10566000000E+00 0. -1.
        994   -1    0    0    0    0 -0.00000000000E+00 -0.00000000000E+00  0.11368683772E-12  0.17120000000E+03  0.17120000000E+03 0.  0.
         13    1    1    2    0    0 -0.13820481912E+02  0.26123491433E+02  0.13410345807E+03  0.13732148832E+03  0.10566000000E+00 0. -1.
        994    1    1    2    0    0  0.15362105685E+02 -0.24087070508E+02  0.57187078201E+01  0.17366152388E+03  0.17120000000E+03 0.  0.
        998    1    1    2    0    0 -0.15416237734E+01 -0.20364209250E+01  0.13601778304E+04  0.13602169878E+04  0.10000000000E+02 0. -1.
</event>
<event>
 5    1  0.1533416E-008  0.3829953E+03  0.7957747E-01  0.3438219E+00
         13   -1    0    0    0    0  0.00000000000E+00  0.00000000000E+00  0.14999999963E+04  0.15000000000E+04  0.10566000000E+00 0. -1.
        994   -1    0    0    0    0 -0.00000000000E+00 -0.00000000000E+00  0.11368683772E-12  0.17120000000E+03  0.17120000000E+03 0.  0.
         13    1    1    2    0    0  0.12527008838E+02  0.12870930498E+02  0.62407802751E+02  0.64940987139E+02  0.10566000000E+00 0. -1.
        994    1    1    2    0    0 -0.76051049718E+00 -0.73315445873E+01  0.28085823864E+01  0.17138161528E+03  0.17120000000E+03 0.  0.
        998    1    1    2    0    0 -0.11766498341E+02 -0.55393859102E+01  0.14347836111E+04  0.14348773976E+04  0.10000000000E+02 0. -1.
</event>
<event>
 5    1  0.1533416E-008  0.3816783E+03  0.7957747E-01  0.3443883E+00
         13   -1    0    0    0    0  0.00000000000E+00  0.00000000000E+00  0.14999999963E+04  0.15000000000E+04  0.10566000000E+00 0. -1.
        994   -1    0    0    0    0 -0.00000000000E+00 -0.00000000000E+00  0.11368683772E-12  0.17120000000E+03  0.17120000000E+03 0.  0.
         13    1    1    2    0    0 -0.54316992088E+01 -0.16575317075E+02  0.43118367757E+02  0.46512893852E+02  0.10566000000E+00 0. -1.
        994    1    1    2    0    0  0.47640830240E+01  0.22862047589E+02  0.51035261056E+01  0.17286079858E+03  0.17120000000E+03 0.  0.
        998    1    1    2    0    0  0.66761618479E+00 -0.62867305147E+01  0.14517781024E+04  0.14518263076E+04  0.10000000000E+02 0. -1.
</event>
<event>
 5    1  0.1533416E-008  0.3837508E+03  0.7957747E-01  0.3434988E+00
         13   -1    0    0    0    0  0.00000000000E+00  0.00000000000E+00  0.14999999963E+04  0.15000000000E+04  0.10566000000E+00 0.  1.
        994   -1    0    0    0    0 -0.00000000000E+00 -0.00000000000E+00  0.11368683772E-12  0.17120000000E+03  0.17120000000E+03 0.  0.
         13    1    1    2    0    0  0.18444808871E+02 -0.85305384648E+01  0.91265029641E+02  0.93500255936E+02  0.10566000000E+00 0.  1.
        994    1    1    2    0    0 -0.67347771505E+01  0.16108667474E+02  0.32588799677E+01  0.17211887372E+03  0.17120000000E+03 0.  0.
        998    1    1    2    0    0 -0.11710031720E+02 -0.75781290091E+01  0.14054760867E+04  0.14055808703E+04  0.10000000000E+02 0.  1.
</event>
<event>
 5    1  0.1533416E-008  0.3823433E+03  0.7957747E-01  0.3441018E+00
         13   -1    0    0    0    0  0.00000000000E+00  0.00000000000E+00  0.14999999963E+04  0.15000000000E+04  0.10566000000E+00 0. -1.
        994   -1    0    0    0    0 -0.00000000000E+00 -0.00000000000E+00  0.11368683772E-12  0.17120000000E+03  0.17120000000E+03 0.  0.
         13    1    1    2    0    0 -0.12984453348E+02  0.52667614510E+00  0.27992363325E+02  0.30861901838E+02  0.10566000000E+00 0. -1.
        994    1    1    2    0    0  0.35275692519E+01 -0.12754166482E+01  0.30015939283E+01  0.17126739327E+03  0.17120000000E+03 0.  0.
        998    1    1    2    0    0  0.94568840965E+01  0.74874050314E+00  0.14690060390E+04  0.14690707049E+04  0.10000000000E+02 0. -1.
</event>
<event>
 5    1  0.1533416E-008  0.3851135E+03  0.7957747E-01  0.3429191E+00
         13   -1    0    0    0    0  0.00000000000E+00  0.00000000000E+00  0.14999999963E+04  0.15000000000E+04  0.10566000000E+00 0. -1.
        994   -1    0    0    0    0 -0.00000000000E+00 -0.00000000000E+00  0.11368683772E-12  0.17120000000E+03  0.17120000000E+03 0.  0.
         13    1    1    2    0    0 -0.10867693229E+02  0.44266882651E+00  0.37765597434E+02  0.39300817109E+02  0.10566000000E+00 0. -1.
        994    1    1    2    0    0  0.59091094727E+01  0.12779942737E+01  0.16939709741E+01  0.17131509093E+03  0.17120000000E+03 0.  0.
        998    1    1    2    0    0  0.49585837565E+01 -0.17206631002E+01  0.14605404279E+04  0.14605840920E+04  0.10000000000E+02 0. -1.
</event>
<event>
 5    1  0.1533416E-008  0.3858777E+03  0.7957747E-01  0.3425958E+00
         13   -1    0    0    0    0  0.00000000000E+00  0.00000000000E+00  0.14999999963E+04  0.15000000000E+04  0.10566000000E+00 0.  1.
        994   -1    0    0    0    0 -0.00000000000E+00 -0.00000000000E+00  0.11368683772E-12  0.17120000000E+03  0.17120000000E+03 0.  0.
         13    1    1    2    0    0 -0.84473486573E+01  0.55270848218E+01  0.40535313291E+02  0.41773546098E+02  0.10566000000E+00 0.  1.
        994    1    1    2    0    0  0.15486083879E+02 -0.76347450322E+01  0.21732246875E+01  0.17208216361E+03  0.17120000000E+03 0.  0.
        998    1    1    2    0    0 -0.70387352215E+01  0.21076602104E+01  0.14572914583E+04  0.14573442903E+04  0.10000000000E+02 0.  1.
</event>
<event>
 5    1  0.1533416E-008  0.3845970E+03  0.7957747E-01  0.3431383E+00
         13   -1    0    0    0    0  0.00000000000E+00  0.00000000000E+00  0.14999999963E+04  0.15000000000E+04  0.10566000000E+00 0. -1.
        994   -1    0    0    0    0 -0.00000000000E+00 -0.00000000000E+00  0.11368683772E-12  0.17120000000E+03  0.17120000000E+03 0.  0.
         13    1    1    2    0    0 -0.67163194692E+01  0.81365724141E+01  0.29539665693E+02  0.31367431695E+02  0.10566000000E+00 0. -1.
        994    1    1    2    0    0  0.44513991042E+01 -0.10684481578E+02  0.22716418109E+01  0.17160586662E+03  0.17120000000E+03 0.  0.
        998    1    1    2    0    0  0.22649203650E+01  0.25479091638E+01  0.14681886888E+04  0.14682267017E+04  0.10000000000E+02 0. -1.
</event>
<event>
 5    1  0.1533416E-008  0.3825204E+03  0.7957747E-01  0.3440257E+00
         13   -1    0    0    0    0  0.00000000000E+00  0.00000000000E+00  0.14999999963E+04  0.15000000000E+04  0.10566000000E+00 0. -1.
        994   -1    0    0    0    0 -0.00000000000E+00 -0.00000000000E+00  0.11368683772E-12  0.17120000000E+03  0.17120000000E+03 0.  0.
         13    1    1    2    0    0  0.61875815588E-01  0.11462581516E+02  0.22455108974E+02  0.25211856074E+02  0.10566000000E+00 0. -1.
        994    1    1    2    0    0  0.35762311151E+01  0.88730092946E+00  0.29112418636E+01  0.17126439227E+03  0.17120000000E+03 0.  0.
        998    1    1    2    0    0 -0.36381069307E+01 -0.12349882446E+02  0.14746336454E+04  0.14747237517E+04  0.10000000000E+02 0. -1.
</event>
<event>
 5    1  0.1533416E-008  0.4053515E+03  0.7957747E-01  0.3347693E+00
         13   -1    0    0    0    0  0.00000000000E+00  0.00000000000E+00  0.14999999963E+04  0.15000000000E+04  0.10566000000E+00 0. -1.
        994   -1    0    0    0    0 -0.00000000000E+00 -0.00000000000E+00  0.11368683772E-12  0.17120000000E+03  0.17120000000E+03 0.  0.
         13    1    1    2    0    0  0.27672430317E+02  0.40075237889E+02  0.22157307716E+02  0.53504631022E+02  0.10566000000E+00 0. -1.
        994    1    1    2    0    0 -0.72304224305E+02 -0.67257586358E+02  0.71238613233E+02  0.21008537262E+03  0.17120000000E+03 0.  0.
        998    1    1    2    0    0  0.44631793988E+02  0.27182348469E+02  0.14066040753E+04  0.14076099964E+04  0.10000000000E+02 0. -1.
</event>
<event>
 5    1  0.1533416E-008  0.3743306E+03  0.7957747E-01  0.3476222E+00
         13   -1    0    0    0    0  0.00000000000E+00  0.00000000000E+00  0.14999999963E+04  0.15000000000E+04  0.10566000000E+00 0. -1.
        994   -1    0    0    0    0 -0.00000000000E+00 -0.00000000000E+00  0.11368683772E-12  0.17120000000E+03  0.17120000000E+03 0.  0.
         13    1    1    2    0    0 -0.18032704373E+02 -0.48463871206E+02  0.24271951492E+03  0.24816667650E+03  0.10566000000E+00 0. -1.
        994    1    1    2    0    0 -0.23280396792E+01 -0.73886073255E+01  0.72273848006E+01  0.17152750910E+03  0.17120000000E+03 0.  0.
        998    1    1    2    0    0  0.20360744052E+02  0.55852478532E+02  0.12500530966E+04  0.12515058144E+04  0.10000000000E+02 0. -1.
</event>
<event>
 5    1  0.1533416E-008  0.3803258E+03  0.7957747E-01  0.3449741E+00
         13   -1    0    0    0    0  0.00000000000E+00  0.00000000000E+00  0.14999999963E+04  0.15000000000E+04  0.10566000000E+00 0. -1.
        994   -1    0    0    0    0 -0.00000000000E+00 -0.00000000000E+00  0.11368683772E-12  0.17120000000E+03  0.17120000000E+03 0.  0.
         13    1    1    2    0    0  0.21747349436E+02 -0.19002440881E+02  0.10043275791E+03  0.10450258366E+03  0.10566000000E+00 0. -1.
        994    1    1    2    0    0 -0.14310526607E+02  0.19689330069E+02  0.59496969130E+01  0.17302398615E+03  0.17120000000E+03 0.  0.
        998    1    1    2    0    0 -0.74368228295E+01 -0.68688918761E+00  0.13936175415E+04  0.13936734302E+04  0.10000000000E+02 0. -1.
</event>
<event>
 5    1  0.1533416E-008  0.3762934E+03  0.7957747E-01  0.3467458E+00
         13   -1    0    0    0    0  0.00000000000E+00  0.00000000000E+00  0.14999999963E+04  0.15000000000E+04  0.10566000000E+00 0. -1.
        994   -1    0    0    0    0 -0.00000000000E+00 -0.00000000000E+00  0.11368683772E-12  0.17120000000E+03  0.17120000000E+03 0.  0.
         13    1    1    2    0    0 -0.55349303892E+02 -0.16932672905E+02  0.34261528567E+03  0.34747015123E+03  0.10566000000E+00 0. -1.
        994    1    1    2    0    0  0.70755895920E+01  0.76116679477E+01  0.63816546101E+01  0.17163381652E+03  0.17120000000E+03 0.  0.
        998    1    1    2    0    0  0.48273714300E+02  0.93210049573E+01  0.11510030560E+04  0.11520960323E+04  0.10000000000E+02 0. -1.
</event>
<event>
 5    1  0.1533416E-008  0.3833337E+03  0.7957747E-01  0.3436770E+00
         13   -1    0    0    0    0  0.00000000000E+00  0.00000000000E+00  0.14999999963E+04  0.15000000000E+04  0.10566000000E+00 0. -1.
        994   -1    0    0    0    0 -0.00000000000E+00 -0.00000000000E+00  0.11368683772E-12  0.17120000000E+03  0.17120000000E+03 0.  0.
         13    1    1    2    0    0  0.89119631617E+01  0.15936611076E+02  0.64705246445E+02  0.67232274553E+02  0.10566000000E+00 0. -1.
        994    1    1    2    0    0 -0.12586819608E+02 -0.14535105385E+02  0.36830571753E+01  0.17231570511E+03  0.17120000000E+03 0.  0.
        998    1    1    2    0    0  0.36748564461E+01 -0.14015056907E+01  0.14316116927E+04  0.14316520203E+04  0.10000000000E+02 0. -1.
</event>
<event>
 5    1  0.1533416E-008  0.3855467E+03  0.7957747E-01  0.3427357E+00
         13   -1    0    0    0    0  0.00000000000E+00  0.00000000000E+00  0.14999999963E+04  0.15000000000E+04  0.10566000000E+00 0. -1.
        994   -1    0    0    0    0 -0.00000000000E+00 -0.00000000000E+00  0.11368683772E-12  0.17120000000E+03  0.17120000000E+03 0.  0.
         13    1    1    2    0    0  0.33142988207E+01  0.96092068601E+01  0.37813215771E+02  0.39155738841E+02  0.10566000000E+00 0. -1.
        994    1    1    2    0    0 -0.65164933389E+01 -0.67342832011E+01  0.16472835815E+01  0.17146419101E+03  0.17120000000E+03 0.  0.
        998    1    1    2    0    0  0.32021945182E+01 -0.28749236589E+01  0.14605394969E+04  0.14605800701E+04  0.10000000000E+02 0. -1.
</event>
<event>
 5    1  0.1533416E-008  0.3837049E+03  0.7957747E-01  0.3435183E+00
         13   -1    0    0    0    0  0.00000000000E+00  0.00000000000E+00  0.14999999963E+04  0.15000000000E+04  0.10566000000E+00 0.  1.
        994   -1    0    0    0    0 -0.00000000000E+00 -0.00000000000E+00  0.11368683772E-12  0.17120000000E+03  0.17120000000E+03 0.  0.
         13    1    1    2    0    0  0.77100769706E+01 -0.21422734147E+02  0.11983793589E+03  0.12198164151E+03  0.10566000000E+00 0.  1.
        994    1    1    2    0    0 -0.10278458963E+02  0.34815231079E+01  0.26635021412E+01  0.17156427940E+03  0.17120000000E+03 0.  0.
        998    1    1    2    0    0  0.25683819923E+01  0.17941211039E+02  0.13774985583E+04  0.13776540791E+04  0.10000000000E+02 0.  1.
</event>
<event>
 5    1  0.1533416E-008  0.3743541E+03  0.7957747E-01  0.3476117E+00
         13   -1    0    0    0    0  0.00000000000E+00  0.00000000000E+00  0.14999999963E+04  0.15000000000E+04  0.10566000000E+00 0.  1.
        994   -1    0    0    0    0 -0.00000000000E+00 -0.00000000000E+00  0.11368683772E-12  0.17120000000E+03  0.17120000000E+03 0.  0.
         13    1    1    2    0    0  0.56350309415E+01 -0.18922560484E+02  0.24674006569E+02  0.31601180883E+02  0.10566000000E+00 0.  1.
        994    1    1    2    0    0  0.48136963695E+00  0.17526142975E+02  0.80586679310E+01  0.17228400835E+03  0.17120000000E+03 0.  0.
        998    1    1    2    0    0 -0.61164005784E+01  0.13964175094E+01  0.14672673218E+04  0.14673148108E+04  0.10000000000E+02 0.  1.
</event>
<event>
 5    1  0.1533416E-008  0.3855847E+03  0.7957747E-01  0.3427196E+00
         13   -1    0    0    0    0  0.00000000000E+00  0.00000000000E+00  0.14999999963E+04  0.15000000000E+04  0.10566000000E+00 0. -1.
        994   -1    0    0    0    0 -0.00000000000E+00 -0.00000000000E+00  0.11368683772E-12  0.17120000000E+03  0.17120000000E+03 0.  0.
         13    1    1    2    0    0  0.40829115855E+01  0.12037150777E+02  0.57712074117E+02  0.59095328316E+02  0.10566000000E+00 0. -1.
        994    1    1    2    0    0  0.20807525425E+02 -0.25069002934E+02  0.48318805494E+01  0.17433931023E+03  0.17120000000E+03 0.  0.
        998    1    1    2    0    0 -0.24890437010E+02  0.13031852157E+02  0.14374560416E+04  0.14377653615E+04  0.10000000000E+02 0. -1.
</event>
<event>
 5    1  0.1533416E-008  0.3843103E+03  0.7957747E-01  0.3432603E+00
         13   -1    0    0    0    0  0.00000000000E+00  0.00000000000E+00  0.14999999963E+04  0.15000000000E+04  0.10566000000E+00 0. -1.
        994   -1    0    0    0    0 -0.00000000000E+00 -0.00000000000E+00  0.11368683772E-12  0.17120000000E+03  0.17120000000E+03 0.  0.
         13    1    1    2    0    0 -0.12192275234E+02  0.79098084293E+01  0.52376783509E+02  0.54355820844E+02  0.10566000000E+00 0. -1.
        994    1    1    2    0    0  0.98617823844E+01 -0.78997643169E+01  0.24993717434E+01  0.17168386030E+03  0.17120000000E+03 0.  0.
        998    1    1    2    0    0  0.23304928501E+01 -0.10044112402E-01  0.14451238410E+04  0.14451603189E+04  0.10000000000E+02 0. -1.
</event>
<event>
 5    1  0.1533416E-008  0.3814968E+03  0.7957747E-01  0.3444667E+00
         13   -1    0    0    0    0  0.00000000000E+00  0.00000000000E+00  0.14999999963E+04  0.15000000000E+04  0.10566000000E+00 0. -1.
        994   -1    0    0    0    0 -0.00000000000E+00 -0.00000000000E+00  0.11368683772E-12  0.17120000000E+03  0.17120000000E+03 0.  0.
         13    1    1    2    0    0 -0.87753606889E+01 -0.22900376293E+02  0.89760600095E+02  0.93050581315E+02  0.10566000000E+00 0. -1.
        994    1    1    2    0    0  0.11428953918E+01  0.11548890436E+02  0.38276302823E+01  0.17163558440E+03  0.17120000000E+03 0.  0.
        998    1    1    2    0    0  0.76324652971E+01  0.11351485857E+02  0.14064117659E+04  0.14065138343E+04  0.10000000000E+02 0. -1.
</event>
<event>
 5    1  0.1533416E-008  0.3733519E+03  0.7957747E-01  0.3480627E+00
         13   -1    0    0    0    0  0.00000000000E+00  0.00000000000E+00  0.14999999963E+04  0.15000000000E+04  0.10566000000E+00 0.  1.
        994   -1    0    0    0    0 -0.00000000000E+00 -0.00000000000E+00  0.11368683772E-12  0.17120000000E+03  0.17120000000E+03 0.  0.
         13    1    1    2    0    0  0.10324436427E+03 -0.87817748679E+02  0.51573835568E+03  0.53325174020E+03  0.10566000000E+00 0.  1.
        994    1    1    2    0    0 -0.88616472370E+02  0.81560049472E+02  0.65975851220E+02  0.21947021162E+03  0.17120000000E+03 0.  0.
        998    1    1    2    0    0 -0.14627891903E+02  0.62576992073E+01  0.91828578938E+03  0.91847804818E+03  0.10000000000E+02 0.  1.
</event>
<event>
 5    1  0.1533416E-008  0.3811902E+03  0.7957747E-01  0.3445992E+00
         13   -1    0    0    0    0  0.00000000000E+00  0.00000000000E+00  0.14999999963E+04  0.15000000000E+04  0.10566000000E+00 0. -1.
        994   -1    0    0    0    0 -0.00000000000E+00 -0.00000000000E+00  0.11368683772E-12  0.17120000000E+03  0.17120000000E+03 0.  0.
         13    1    1    2    0    0 -0.29657311630E+02 -0.12278428076E+02  0.16153185559E+03  0.16469021666E+03  0.10566000000E+00 0. -1.
        994    1    1    2    0    0  0.16547431922E+01  0.53137928249E+01  0.36367035497E+01  0.17132904068E+03  0.17120000000E+03 0.  0.
        998    1    1    2    0    0  0.28002568438E+02  0.69646352510E+01  0.13348314371E+04  0.13351807427E+04  0.10000000000E+02 0. -1.
</event>
<event>
 5    1  0.1533416E-008  0.3685768E+03  0.7957747E-01  0.3502457E+00
         13   -1    0    0    0    0  0.00000000000E+00  0.00000000000E+00  0.14999999963E+04  0.15000000000E+04  0.10566000000E+00 0.  1.
        994   -1    0    0    0    0 -0.00000000000E+00 -0.00000000000E+00  0.11368683772E-12  0.17120000000E+03  0.17120000000E+03 0.  0.
         13    1    1    2    0    0  0.41789831487E+02 -0.33741933762E+02  0.14064537493E+03  0.15055245186E+03  0.10566000000E+00 0.  1.
        994    1    1    2    0    0 -0.18989126448E+02  0.28781235553E+02  0.14157382028E+02  0.17521078137E+03  0.17120000000E+03 0.  0.
        998    1    1    2    0    0 -0.22800705039E+02  0.49606982091E+01  0.13451972393E+04  0.13454367668E+04  0.10000000000E+02 0.  1.
</event>
<event>
 5    1  0.1533416E-008  0.3824862E+03  0.7957747E-01  0.3440404E+00
         13   -1    0    0    0    0  0.00000000000E+00  0.00000000000E+00  0.14999999963E+04  0.15000000000E+04  0.10566000000E+00 0. -1.
        994   -1    0    0    0    0 -0.00000000000E+00 -0.00000000000E+00  0.11368683772E-12  0.17120000000E+03  0.17120000000E+03 0.  0.
         13    1    1    2    0    0 -0.15679363332E+02 -0.22223311856E+02  0.12303840890E+03  0.12600864754E+03  0.10566000000E+00 0. -1.
        994    1    1    2    0    0  0.18120284936E+02  0.13746945868E+02  0.46005444712E+01  0.17276552971E+03  0.17120000000E+03 0.  0.
        998    1    1    2    0    0 -0.24409216042E+01  0.84763659888E+01  0.13723610429E+04  0.13724258228E+04  0.10000000000E+02 0. -1.
</event>
<event>
 5    1  0.1533416E-008  0.3828128E+03  0.7957747E-01  0.3439002E+00
         13   -1    0    0    0    0  0.00000000000E+00  0.00000000000E+00  0.14999999963E+04  0.15000000000E+04  0.10566000000E+00 0. -1.
        994   -1    0    0    0    0 -0.00000000000E+00 -0.00000000000E+00  0.11368683772E-12  0.17120000000E+03  0.17120000000E+03 0.  0.
         13    1    1    2    0    0  0.62160419939E+02  0.37558263796E+01  0.10927153771E+03  0.12577083985E+03  0.10566000000E+00 0. -1.
        994    1    1    2    0    0 -0.22551884046E+02  0.10634323585E+02  0.20160269409E+02  0.17417678598E+03  0.17120000000E+03 0.  0.
        998    1    1    2    0    0 -0.39608535893E+02 -0.14390149964E+02  0.13705681892E+04  0.13712523742E+04  0.10000000000E+02 0. -1.
</event>
<event>
 5    1  0.1533416E-008  0.3841864E+03  0.7957747E-01  0.3433130E+00
         13   -1    0    0    0    0  0.00000000000E+00  0.00000000000E+00  0.14999999963E+04  0.15000000000E+04  0.10566000000E+00 0.  1.
        994   -1    0    0    0    0 -0.00000000000E+00 -0.00000000000E+00  0.11368683772E-12  0.17120000000E+03  0.17120000000E+03 0.  0.
         13    1    1    2    0    0 -0.35767199656E+01  0.11161186034E+02  0.33669753316E+02  0.35651485969E+02  0.10566000000E+00 0.  1.
        994    1    1    2    0    0  0.28636453616E+01 -0.43777834133E+01  0.21248464865E+01  0.17129308341E+03  0.17120000000E+03 0.  0.
        998    1    1    2    0    0  0.71307460409E+00 -0.67834026203E+01  0.14642053965E+04  0.14642554306E+04  0.10000000000E+02 0.  1.
</event>
<event>
 5    1  0.1533416E-008  0.3851548E+03  0.7957747E-01  0.3429016E+00
         13   -1    0    0    0    0  0.00000000000E+00  0.00000000000E+00  0.14999999963E+04  0.15000000000E+04  0.10566000000E+00 0. -1.
        994   -1    0    0    0    0 -0.00000000000E+00 -0.00000000000E+00  0.11368683772E-12  0.17120000000E+03  0.17120000000E+03 0.  0.
         13    1    1    2    0    0 -0.14909746857E+01 -0.11468461284E+02  0.46697199798E+02  0.48108089161E+02  0.10566000000E+00 0. -1.
        994    1    1    2    0    0 -0.19921972494E+01 -0.66361827760E+01  0.17111007665E+01  0.17134869605E+03  0.17120000000E+03 0.  0.
        998    1    1    2    0    0  0.34831719350E+01  0.18104644060E+02  0.14515916957E+04  0.14517432148E+04  0.10000000000E+02 0. -1.
</event>
<event>
 5    1  0.1533416E-008  0.3751233E+03  0.7957747E-01  0.3472672E+00
         13   -1    0    0    0    0  0.00000000000E+00  0.00000000000E+00  0.14999999963E+04  0.15000000000E+04  0.10566000000E+00 0.  1.
        994   -1    0    0    0    0 -0.00000000000E+00 -0.00000000000E+00  0.11368683772E-12  0.17120000000E+03  0.17120000000E+03 0.  0.
         13    1    1    2    0    0  0.14568971563E+03 -0.13951939950E+03  0.89609925028E+03  0.91852328964E+03  0.10566000000E+00 0.  1.
        994    1    1    2    0    0 -0.14175569733E+03  0.14630742042E+03  0.16397300500E+03  0.31256539374E+03  0.17120000000E+03 0.  0.
        998    1    1    2    0    0 -0.39340183048E+01 -0.67880209147E+01  0.43992774099E+03  0.44011131662E+03  0.10000000000E+02 0.  0.
</event>
<event>
 5    1  0.1533416E-008  0.3865421E+03  0.7957747E-01  0.3423158E+00
         13   -1    0    0    0    0  0.00000000000E+00  0.00000000000E+00  0.14999999963E+04  0.15000000000E+04  0.10566000000E+00 0. -1.
        994   -1    0    0    0    0 -0.00000000000E+00 -0.00000000000E+00  0.11368683772E-12  0.17120000000E+03  0.17120000000E+03 0.  0.
         13    1    1    2    0    0  0.47373588036E+01 -0.10941097725E+02  0.61265442096E+02  0.62414867998E+02  0.10566000000E+00 0. -1.
        994    1    1    2    0    0 -0.34030550374E+02  0.37895286073E+02  0.94015692645E+01  0.17886296590E+03  0.17120000000E+03 0.  0.
        998    1    1    2    0    0  0.29293191570E+02 -0.26954188347E+02  0.14293329849E+04  0.14299221661E+04  0.10000000000E+02 0. -1.
</event>
<event>
 5    1  0.1533416E-008  0.3829551E+03  0.7957747E-01  0.3438391E+00
         13   -1    0    0    0    0  0.00000000000E+00  0.00000000000E+00  0.14999999963E+04  0.15000000000E+04  0.10566000000E+00 0. -1.
        994   -1    0    0    0    0 -0.00000000000E+00 -0.00000000000E+00  0.11368683772E-12  0.17120000000E+03  0.17120000000E+03 0.  0.
         13    1    1    2    0    0  0.29370392754E+02  0.97628392202E+01  0.18720695849E+03  0.18974822653E+03  0.10566000000E+00 0. -1.
        994    1    1    2    0    0 -0.13930011157E+02 -0.17240688433E+01  0.33013009958E+01  0.17180615883E+03  0.17120000000E+03 0.  0.
        998    1    1    2    0    0 -0.15440381597E+02 -0.80387703769E+01  0.13094917368E+04  0.13096456146E+04  0.10000000000E+02 0. -1.
</event>
<event>
 5    1  0.1533416E-008  0.3788551E+03  0.7957747E-01  0.3456159E+00
         13   -1    0    0    0    0  0.00000000000E+00  0.00000000000E+00  0.14999999963E+04  0.15000000000E+04  0.10566000000E+00 0.  1.
        994   -1    0    0    0    0 -0.00000000000E+00 -0.00000000000E+00  0.11368683772E-12  0.17120000000E+03  0.17120000000E+03 0.  0.
         13    1    1    2    0    0 -0.77979459189E+02 -0.28741789412E+02  0.46711503427E+03  0.47445058006E+03  0.10566000000E+00 0.  1.
        994    1    1    2    0    0  0.80335729943E+02  0.39147428020E+02  0.31996139039E+02  0.19575378295E+03  0.17120000000E+03 0.  0.
        998    1    1    2    0    0 -0.23562707546E+01 -0.10405638608E+02  0.10008888230E+04  0.10009956370E+04  0.10000000000E+02 0.  1.
</event>
<event>
 5    1  0.1533416E-008  0.3816289E+03  0.7957747E-01  0.3444096E+00
         13   -1    0    0    0    0  0.00000000000E+00  0.00000000000E+00  0.14999999963E+04  0.15000000000E+04  0.10566000000E+00 0.  1.
        994   -1    0    0    0    0 -0.00000000000E+00 -0.00000000000E+00  0.11368683772E-12  0.17120000000E+03  0.17120000000E+03 0.  0.
         13    1    1    2    0    0 -0.23773229739E+02  0.16473474777E+01  0.86682184919E+02  0.89898234423E+02  0.10566000000E+00 0.  1.
        994    1    1    2    0    0  0.89316312623E+01 -0.30134760186E+02  0.66047878282E+01  0.17418651220E+03  0.17120000000E+03 0.  0.
        998    1    1    2    0    0  0.14841598477E+02  0.28487412708E+02  0.14067130235E+04  0.14071152534E+04  0.10000000000E+02 0.  1.
</event>
<event>
 5    1  0.1533416E-008  0.3832625E+03  0.7957747E-01  0.3437075E+00
         13   -1    0    0    0    0  0.00000000000E+00  0.00000000000E+00  0.14999999963E+04  0.15000000000E+04  0.10566000000E+00 0.  1.
        994   -1    0    0    0    0 -0.00000000000E+00 -0.00000000000E+00  0.11368683772E-12  0.17120000000E+03  0.17120000000E+03 0.  0.
         13    1    1    2    0    0  0.35428389620E+01  0.96306643973E+01  0.20127305330E+02  0.22592498501E+02  0.10566000000E+00 0.  1.
        994    1    1    2    0    0 -0.64129491184E+01 -0.64747593238E+01  0.27699503661E+01  0.17146475162E+03  0.17120000000E+03 0.  0.
        998    1    1    2    0    0  0.28701101565E+01 -0.31559050735E+01  0.14771027406E+04  0.14771427499E+04  0.10000000000E+02 0.  1.
</event>
<event>
 5    1  0.1533416E-008  0.3858765E+03  0.7957747E-01  0.3425963E+00
         13   -1    0    0    0    0  0.00000000000E+00  0.00000000000E+00  0.14999999963E+04  0.15000000000E+04  0.10566000000E+00 0.  1.
        994   -1    0    0    0    0 -0.00000000000E+00 -0.00000000000E+00  0.11368683772E-12  0.17120000000E+03  0.17120000000E+03 0.  0.
         13    1    1    2    0    0 -0.89701474291E+01 -0.10791812387E+02  0.81058829268E+02  0.82264644446E+02  0.10566000000E+00 0.  1.
        994    1    1    2    0    0  0.92810815819E+01  0.82739809257E+01  0.17027233313E+01  0.17165936183E+03  0.17120000000E+03 0.  0.
        998    1    1    2    0    0 -0.31093415282E+00  0.25178314616E+01  0.14172384437E+04  0.14172759937E+04  0.10000000000E+02 0.  1.
</event>
<event>
 5    1  0.1533416E-008  0.3861639E+03  0.7957747E-01  0.3424751E+00
         13   -1    0    0    0    0  0.00000000000E+00  0.00000000000E+00  0.14999999963E+04  0.15000000000E+04  0.10566000000E+00 0.  1.
        994   -1    0    0    0    0 -0.00000000000E+00 -0.00000000000E+00  0.11368683772E-12  0.17120000000E+03  0.17120000000E+03 0.  0.
         13    1    1    2    0    0  0.82675447312E+01  0.57407691923E+01  0.49496485276E+02  0.50509622306E+02  0.10566000000E+00 0.  1.
        994    1    1    2    0    0 -0.85407794293E+01  0.39060399899E+01  0.13424299911E+01  0.17146266118E+03  0.17120000000E+03 0.  0.
        998    1    1    2    0    0  0.27323469817E+00 -0.96468091822E+01  0.14491610810E+04  0.14492277165E+04  0.10000000000E+02 0.  1.
</event>
<event>
 5    1  0.1533416E-008  0.3854115E+03  0.7957747E-01  0.3427929E+00
         13   -1    0    0    0    0  0.00000000000E+00  0.00000000000E+00  0.14999999963E+04  0.15000000000E+04  0.10566000000E+00 0.  1.
        994   -1    0    0    0    0 -0.00000000000E+00 -0.00000000000E+00  0.11368683772E-12  0.17120000000E+03  0.17120000000E+03 0.  0.
         13    1    1    2    0    0 -0.10634561070E+02  0.56284618321E-01  0.40949095705E+02  0.42307643048E+02  0.10566000000E+00 0.  1.
        994    1    1    2    0    0  0.16096487390E+01  0.20858400161E+01  0.14487601855E+01  0.17122640160E+03  0.17120000000E+03 0.  0.
        998    1    1    2    0    0  0.90249123310E+01 -0.21421246344E+01  0.14576021404E+04  0.14576659554E+04  0.10000000000E+02 0.  1.
</event>
<event>
 5    1  0.1533416E-008  0.3842890E+03  0.7957747E-01  0.3432693E+00
         13   -1    0    0    0    0  0.00000000000E+00  0.00000000000E+00  0.14999999963E+04  0.15000000000E+04  0.10566000000E+00 0. -1.
        994   -1    0    0    0    0 -0.00000000000E+00 -0.00000000000E+00  0.11368683772E-12  0.17120000000E+03  0.17120000000E+03 0.  0.
         13    1    1    2    0    0 -0.14391607817E+02 -0.17987527320E+02  0.13065740159E+03  0.13267266964E+03  0.10566000000E+00 0. -1.
        994    1    1    2    0    0  0.13568194993E+02  0.10588627217E+02  0.29605434082E+01  0.17208840681E+03  0.17120000000E+03 0.  0.
        998    1    1    2    0    0  0.82341282427E+00  0.73989001024E+01  0.13663820513E+04  0.13664389236E+04  0.10000000000E+02 0. -1.
</event>
<event>
 5    1  0.1533416E-008  0.3842331E+03  0.7957747E-01  0.3432931E+00
         13   -1    0    0    0    0  0.00000000000E+00  0.00000000000E+00  0.14999999963E+04  0.15000000000E+04  0.10566000000E+00 0.  1.
        994   -1    0    0    0    0 -0.00000000000E+00 -0.00000000000E+00  0.11368683772E-12  0.17120000000E+03  0.17120000000E+03 0.  0.
         13    1    1    2    0    0  0.11075124029E+02 -0.10613903163E+01  0.30894852588E+02  0.32837295902E+02  0.10566000000E+00 0.  1.
        994    1    1    2    0    0 -0.23029546465E+01  0.24744065456E+01  0.20490544088E+01  0.17124562742E+03  0.17120000000E+03 0.  0.
        998    1    1    2    0    0 -0.87721693827E+01 -0.14130162293E+01  0.14670560893E+04  0.14671170767E+04  0.10000000000E+02 0.  1.
</event>
<event>
 5    1  0.1533416E-008  0.3841341E+03  0.7957747E-01  0.3433353E+00
         13   -1    0    0    0    0  0.00000000000E+00  0.00000000000E+00  0.14999999963E+04  0.15000000000E+04  0.10566000000E+00 0. -1.
        994   -1    0    0    0    0 -0.00000000000E+00 -0.00000000000E+00  0.11368683772E-12  0.17120000000E+03  0.17120000000E+03 0.  0.
         13    1    1    2    0    0 -0.11620267651E+02 -0.13300276592E+02  0.82593071479E+02  0.84460372945E+02  0.10566000000E+00 0. -1.
        994    1    1    2    0    0 -0.85012677996E+01  0.38041437109E+01  0.23467501050E+01  0.17146921094E+03  0.17120000000E+03 0.  0.
        998    1    1    2    0    0  0.20121535450E+02  0.94961328816E+01  0.14150601747E+04  0.14152704161E+04  0.10000000000E+02 0. -1.
</event>
<event>
 5    1  0.1533416E-008  0.3841167E+03  0.7957747E-01  0.3433427E+00
         13   -1    0    0    0    0  0.00000000000E+00  0.00000000000E+00  0.14999999963E+04  0.15000000000E+04  0.10566000000E+00 0. -1.
        994   -1    0    0    0    0 -0.00000000000E+00 -0.00000000000E+00  0.11368683772E-12  0.17120000000E+03  0.17120000000E+03 0.  0.
         13    1    1    2    0    0  0.14200882320E+02 -0.62033027087E+01  0.68123080983E+02  0.69863519449E+02  0.10566000000E+00 0. -1.
        994    1    1    2    0    0  0.16020109125E+02 -0.79177877764E+01  0.31232109245E+01  0.17215844361E+03  0.17120000000E+03 0.  0.
        998    1    1    2    0    0 -0.30220991445E+02  0.14121090485E+02  0.14287537044E+04  0.14291780369E+04  0.10000000000E+02 0. -1.
</event>
<event>
 5    1  0.1533416E-008  0.3796952E+03  0.7957747E-01  0.3452487E+00
         13   -1    0    0    0    0  0.00000000000E+00  0.00000000000E+00  0.14999999963E+04  0.15000000000E+04  0.10566000000E+00 0.  1.
        994   -1    0    0    0    0 -0.00000000000E+00 -0.00000000000E+00  0.11368683772E-12  0.17120000000E+03  0.17120000000E+03 0.  0.
         13    1    1    2    0    0  0.39375390463E+02 -0.49546584005E+01  0.20916301119E+03  0.21289468389E+03  0.10566000000E+00 0.  1.
        994    1    1    2    0    0 -0.47522667147E+01  0.12401387088E+01  0.43678292379E+01  0.17132612152E+03  0.17120000000E+03 0.  0.
        998    1    1    2    0    0 -0.34623123748E+02  0.37145196916E+01  0.12864691559E+04  0.12869791946E+04  0.10000000000E+02 0.  1.
</event>
<event>
 5    1  0.1533416E-008  0.3706946E+03  0.7957747E-01  0.3492705E+00
         13   -1    0    0    0    0  0.00000000000E+00  0.00000000000E+00  0.14999999963E+04  0.15000000000E+04  0.10566000000E+00 0. -1.
        994   -1    0    0    0    0 -0.00000000000E+00 -0.00000000000E+00  0.11368683772E-12  0.17120000000E+03  0.17120000000E+03 0.  0.
         13    1    1    2    0    0 -0.43965056328E+02  0.14959169773E+02  0.12842718864E+03  0.13656594335E+03  0.10566000000E+00 0. -1.
        994    1    1    2    0    0  0.27778306245E+02  0.50541681279E+02  0.20468275204E+02  0.18180892754E+03  0.17120000000E+03 0.  0.
        998    1    1    2    0    0  0.16186750083E+02 -0.65500851053E+02  0.13511045324E+04  0.13528251291E+04  0.10000000000E+02 0. -1.
</event>
<event>
 5    1  0.1533416E-008  0.3720134E+03  0.7957747E-01  0.3486689E+00
         13   -1    0    0    0    0  0.00000000000E+00  0.00000000000E+00  0.14999999963E+04  0.15000000000E+04  0.10566000000E+00 0. -1.
        994   -1    0    0    0    0 -0.00000000000E+00 -0.00000000000E+00  0.11368683772E-12  0.17120000000E+03  0.17120000000E+03 0.  0.
         13    1    1    2    0    0  0.26212105428E+02 -0.80286441180E+02  0.33373912037E+03  0.34425978379E+03  0.10566000000E+00 0. -1.
        994    1    1    2    0    0 -0.27917522997E+02  0.79565168085E+02  0.33044921738E+02  0.19367862793E+03  0.17120000000E+03 0.  0.
        998    1    1    2    0    0  0.17054175689E+01  0.72127309489E+00  0.11332159542E+04  0.11332615883E+04  0.10000000000E+02 0.  0.
</event>
<event>
 5    1  0.1533416E-008  0.3851831E+03  0.7957747E-01  0.3428896E+00
         13   -1    0    0    0    0  0.00000000000E+00  0.00000000000E+00  0.14999999963E+04  0.15000000000E+04  0.10566000000E+00 0.  1.
        994   -1    0    0    0    0 -0.00000000000E+00 -0.00000000000E+00  0.11368683772E-12  0.17120000000E+03  0.17120000000E+03 0.  0.
         13    1    1    2    0    0 -0.72744960366E+00 -0.13395071628E+02  0.62904064166E+02  0.64318656543E+02  0.10566000000E+00 0.  1.
        994    1    1    2    0    0 -0.26825041264E+00 -0.21504951102E+01  0.15547057636E+01  0.17122077473E+03  0.17120000000E+03 0.  0.
        998    1    1    2    0    0  0.99570001631E+00  0.15545566738E+02  0.14355412263E+04  0.14356605687E+04  0.10000000000E+02 0.  1.
</event>
<event>
 5    1  0.1533416E-008  0.3838352E+03  0.7957747E-01  0.3434627E+00
         13   -1    0    0    0    0  0.00000000000E+00  0.00000000000E+00  0.14999999963E+04  0.15000000000E+04  0.10566000000E+00 0.  1.
        994   -1    0    0    0    0 -0.00000000000E+00 -0.00000000000E+00  0.11368683772E-12  0.17120000000E+03  0.17120000000E+03 0.  0.
         13    1    1    2    0    0 -0.13176560709E+02  0.62213063788E+01  0.46114573128E+02  0.48362086638E+02  0.10566000000E+00 0.  1.
        994    1    1    2    0    0  0.11485308929E+02 -0.13409430963E+02  0.32392558676E+01  0.17213848477E+03  0.17120000000E+03 0.  0.
        998    1    1    2    0    0  0.16912517797E+01  0.71881245838E+01  0.14506461673E+04  0.14506994286E+04  0.10000000000E+02 0.  1.
</event>
<event>
 5    1  0.1533416E-008  0.3704418E+03  0.7957747E-01  0.3493863E+00
         13   -1    0    0    0    0  0.00000000000E+00  0.00000000000E+00  0.14999999963E+04  0.15000000000E+04  0.10566000000E+00 0. -1.
        994   -1    0    0    0    0 -0.00000000000E+00 -0.00000000000E+00  0.11368683772E-12  0.17120000000E+03  0.17120000000E+03 0.  0.
         13    1    1    2    0    0  0.72313417269E+02 -0.51470169623E+02  0.33448989126E+03  0.34606633352E+03  0.10566000000E+00 0. -1.
        994    1    1    2    0    0 -0.90568263456E+02  0.27199254830E+02  0.40576286812E+02  0.19974555029E+03  0.17120000000E+03 0.  0.
        998    1    1    2    0    0  0.18254846187E+02  0.24270914793E+02  0.11249338182E+04  0.11253881162E+04  0.10000000000E+02 0. -1.
</event>
<event>
 5    1  0.1533416E-008  0.3782559E+03  0.7957747E-01  0.3458788E+00
         13   -1    0    0    0    0  0.00000000000E+00  0.00000000000E+00  0.14999999963E+04  0.15000000000E+04  0.10566000000E+00 0. -1.
        994   -1    0    0    0    0 -0.00000000000E+00 -0.00000000000E+00  0.11368683772E-12  0.17120000000E+03  0.17120000000E+03 0.  0.
         13    1    1    2    0    0 -0.23095170075E+02 -0.69351610699E+01  0.54550364304E+02  0.59642574974E+02  0.10566000000E+00 0. -1.
        994    1    1    2    0    0  0.21185146896E+02  0.99054035269E+01  0.68572623110E+01  0.17292596541E+03  0.17120000000E+03 0.  0.
        998    1    1    2    0    0  0.19100231788E+01 -0.29702424569E+01  0.14385923697E+04  0.14386314596E+04  0.10000000000E+02 0. -1.
</event>
<event>
 5    1  0.1533416E-008  0.3849425E+03  0.7957747E-01  0.3429916E+00
         13   -1    0    0    0    0  0.00000000000E+00  0.00000000000E+00  0.14999999963E+04  0.15000000000E+04  0.10566000000E+00 0. -1.
        994   -1    0    0    0    0 -0.00000000000E+00 -0.00000000000E+00  0.11368683772E-12  0.17120000000E+03  0.17120000000E+03 0.  0.
         13    1    1    2    0    0  0.12210644411E+02  0.70389312913E+00  0.48060054131E+02  0.49592088780E+02  0.10566000000E+00 0. -1.
        994    1    1    2    0    0  0.39488647326E+01 -0.17301485417E+01  0.17198082708E+01  0.17126291101E+03  0.17120000000E+03 0.  0.
        998    1    1    2    0    0 -0.16159509144E+02  0.10262554125E+01  0.14502201339E+04  0.14503450002E+04  0.10000000000E+02 0. -1.
</event>
<event>
 5    1  0.1533416E-008  0.3794679E+03  0.7957747E-01  0.3453479E+00
         13   -1    0    0    0    0  0.00000000000E+00  0.00000000000E+00  0.14999999963E+04  0.15000000000E+04  0.10566000000E+00 0.  1.
        994   -1    0    0    0    0 -0.00000000000E+00 -0.00000000000E+00  0.11368683772E-12  0.17120000000E+03  0.17120000000E+03 0.  0.
         13    1    1    2    0    0  0.18019685143E+02  0.15492237707E+02  0.59544124731E+02  0.64111094483E+02  0.10566000000E+00 0.  1.
        994    1    1    2    0    0 -0.35340819061E+02 -0.14266837815E+01  0.86027378503E+01  0.17502701511E+03  0.17120000000E+03 0.  0.
        998    1    1    2    0    0  0.17321133918E+02 -0.14065553925E+02  0.14318531337E+04  0.14320618904E+04  0.10000000000E+02 0.  1.
</event>
<event>
 5    1  0.1533416E-008  0.3839289E+03  0.7957747E-01  0.3434227E+00
         13   -1    0    0    0    0  0.00000000000E+00  0.00000000000E+00  0.14999999963E+04  0.15000000000E+04  0.10566000000E+00 0.  1.
        994   -1    0    0    0    0 -0.00000000000E+00 -0.00000000000E+00  0.11368683772E-12  0.17120000000E+03  0.17120000000E+03 0.  0.
         13    1    1    2    0    0 -0.97163348795E+01 -0.10949396552E+02  0.50747771821E+02  0.52817080165E+02  0.10566000000E+00 0.  1.
        994    1    1    2    0    0 -0.48933734992E+01  0.82311440515E+01  0.24654995746E+01  0.17148532160E+03  0.17120000000E+03 0.  0.
        998    1    1    2    0    0  0.14609708379E+02  0.27182525006E+01  0.14467867249E+04  0.14468975982E+04  0.10000000000E+02 0.  1.
</event>
<event>
 5    1  0.1533416E-008  0.3831129E+03  0.7957747E-01  0.3437715E+00
         13   -1    0    0    0    0  0.00000000000E+00  0.00000000000E+00  0.14999999963E+04  0.15000000000E+04  0.10566000000E+00 0.  1.
        994   -1    0    0    0    0 -0.00000000000E+00 -0.00000000000E+00  0.11368683772E-12  0.17120000000E+03  0.17120000000E+03 0.  0.
         13    1    1    2    0    0  0.19893864675E+02 -0.10904322163E+02  0.10659671370E+03  0.10898413017E+03  0.10566000000E+00 0.  1.
        994    1    1    2    0    0 -0.20270661350E+01  0.37066704428E+01  0.26290414784E+01  0.17127229858E+03  0.17120000000E+03 0.  0.
        998    1    1    2    0    0 -0.17866798540E+02  0.71976517207E+01  0.13907742411E+04  0.13909435712E+04  0.10000000000E+02 0.  1.
</event>
<event>
 5    1  0.1533416E-008  0.3803059E+03  0.7957747E-01  0.3449827E+00
         13   -1    0    0    0    0  0.00000000000E+00  0.00000000000E+00  0.14999999963E+04  0.15000000000E+04  0.10566000000E+00 0.  1.
        994   -1    0    0    0    0 -0.00000000000E+00 -0.00000000000E+00  0.11368683772E-12  0.17120000000E+03  0.17120000000E+03 0.  0.
         13    1    1    2    0    0 -0.43330587299E+02 -0.21837227432E+02  0.22467764928E+03  0.22985748095E+03  0.10566000000E+00 0.  1.
        994    1    1    2    0    0  0.41760169860E+02  0.61695832735E+02  0.22742309075E+02  0.18808758647E+03  0.17120000000E+03 0.  0.
        998    1    1    2    0    0  0.15704174389E+01 -0.39858605303E+02  0.12525800379E+04  0.12532549326E+04  0.10000000000E+02 0.  1.
</event>
<event>
 5    1  0.1533416E-008  0.3799579E+03  0.7957747E-01  0.3451342E+00
         13   -1    0    0    0    0  0.00000000000E+00  0.00000000000E+00  0.14999999963E+04  0.15000000000E+04  0.10566000000E+00 0.  1.
        994   -1    0    0    0    0 -0.00000000000E+00 -0.00000000000E+00  0.11368683772E-12  0.17120000000E+03  0.17120000000E+03 0.  0.
         13    1    1    2    0    0  0.31719418072E+02 -0.93226187485E+01  0.13050251386E+03  0.13462522049E+03  0.10566000000E+00 0.  1.
        994    1    1    2    0    0 -0.17333370788E+02  0.90765231149E+01  0.54353888989E+01  0.17240015217E+03  0.17120000000E+03 0.  0.
        998    1    1    2    0    0 -0.14386047284E+02  0.24609563353E+00  0.13640620935E+04  0.13641746273E+04  0.10000000000E+02 0.  1.
</event>
<event>
 5    1  0.1533416E-008  0.3757872E+03  0.7957747E-01  0.3469710E+00
         13   -1    0    0    0    0  0.00000000000E+00  0.00000000000E+00  0.14999999963E+04  0.15000000000E+04  0.10566000000E+00 0. -1.
        994   -1    0    0    0    0 -0.00000000000E+00 -0.00000000000E+00  0.11368683772E-12  0.17120000000E+03  0.17120000000E+03 0.  0.
         13    1    1    2    0    0 -0.30561660448E+02  0.10601657240E+03  0.66509910124E+03  0.67418866376E+03  0.10566000000E+00 0. -1.
        994    1    1    2    0    0  0.31896979787E+01 -0.99115071547E+02  0.40379222226E+02  0.20192546439E+03  0.17120000000E+03 0.  0.
        998    1    1    2    0    0  0.27371962469E+02 -0.69015008532E+01  0.79452167282E+03  0.79508587185E+03  0.10000000000E+02 0. -1.
</event>
<event>
 5    1  0.1533416E-008  0.2453294E+03  0.7957747E-01  0.4384901E+00
         13   -1    0    0    0    0  0.00000000000E+00  0.00000000000E+00  0.14999999963E+04  0.15000000000E+04  0.10566000000E+00 0. -1.
        994   -1    0    0    0    0 -0.00000000000E+00 -0.00000000000E+00  0.11368683772E-12  0.17120000000E+03  0.17120000000E+03 0.  0.
         13    1    1    2    0    0 -0.13287240402E+03 -0.10505243989E+03  0.12526873798E+03  0.21067358343E+03  0.10566000000E+00 0. -1.
        994    1    1    2    0    0  0.47949218117E+02 -0.13740909905E+03  0.48744117284E+03  0.53673897287E+03  0.17120000000E+03 0.  0.
        998    1    1    2    0    0  0.84923185907E+02  0.24246153894E+03  0.88729008546E+03  0.92378744370E+03  0.10000000000E+02 0. -1.
</event>
<event>
 5    1  0.1533416E-008  0.3812805E+03  0.7957747E-01  0.3445602E+00
         13   -1    0    0    0    0  0.00000000000E+00  0.00000000000E+00  0.14999999963E+04  0.15000000000E+04  0.10566000000E+00 0.  1.
        994   -1    0    0    0    0 -0.00000000000E+00 -0.00000000000E+00  0.11368683772E-12  0.17120000000E+03  0.17120000000E+03 0.  0.
         13    1    1    2    0    0  0.16958935409E+02  0.67510391933E+01  0.49080673662E+02  0.52365119226E+02  0.10566000000E+00 0.  1.
        994    1    1    2    0    0 -0.14355464147E+00  0.43211521698E+01  0.35503908845E+01  0.17129138402E+03  0.17120000000E+03 0.  0.
        998    1    1    2    0    0 -0.16815380767E+02 -0.11072191363E+02  0.14473689317E+04  0.14475434968E+04  0.10000000000E+02 0.  1.
</event>
<event>
 5    1  0.1533416E-008  0.3694807E+03  0.7957747E-01  0.3498281E+00
         13   -1    0    0    0    0  0.00000000000E+00  0.00000000000E+00  0.14999999963E+04  0.15000000000E+04  0.10566000000E+00 0. -1.
        994   -1    0    0    0    0 -0.00000000000E+00 -0.00000000000E+00  0.11368683772E-12  0.17120000000E+03  0.17120000000E+03 0.  0.
         13    1    1    2    0    0  0.45861081699E+02 -0.19043345364E+02  0.10920480030E+03  0.11996494233E+03  0.10566000000E+00 0. -1.
        994    1    1    2    0    0 -0.35312640609E+02  0.13706081964E+02  0.15688215312E+02  0.17604090255E+03  0.17120000000E+03 0.  0.
        998    1    1    2    0    0 -0.10548441090E+02  0.53372633999E+01  0.13751069807E+04  0.13751941551E+04  0.10000000000E+02 0. -1.
</event>
<event>
 5    1  0.1533416E-008  0.3759648E+03  0.7957747E-01  0.3468919E+00
         13   -1    0    0    0    0  0.00000000000E+00  0.00000000000E+00  0.14999999963E+04  0.15000000000E+04  0.10566000000E+00 0.  1.
        994   -1    0    0    0    0 -0.00000000000E+00 -0.00000000000E+00  0.11368683772E-12  0.17120000000E+03  0.17120000000E+03 0.  0.
         13    1    1    2    0    0  0.37914273517E+01  0.23723569138E+02  0.44060078440E+02  0.50184502888E+02  0.10566000000E+00 0.  1.
        994    1    1    2    0    0 -0.93101899332E+00 -0.17255095831E+02  0.71965057452E+01  0.17222030898E+03  0.17120000000E+03 0.  0.
        998    1    1    2    0    0 -0.28604083584E+01 -0.64684733067E+01  0.14487434121E+04  0.14487951881E+04  0.10000000000E+02 0.  1.
</event>
<event>
 5    1  0.1533416E-008  0.3720760E+03  0.7957747E-01  0.3486404E+00
         13   -1    0    0    0    0  0.00000000000E+00  0.00000000000E+00  0.14999999963E+04  0.15000000000E+04  0.10566000000E+00 0.  1.
        994   -1    0    0    0    0 -0.00000000000E+00 -0.00000000000E+00  0.11368683772E-12  0.17120000000E+03  0.17120000000E+03 0.  0.
         13    1    1    2    0    0 -0.10589585568E+02 -0.23635731237E+01  0.33836943095E+01  0.11366017404E+02  0.10566000000E+00 0.  1.
        994    1    1    2    0    0  0.74208767335E+01  0.56637737971E+01  0.84872182162E+01  0.17166426716E+03  0.17120000000E+03 0.  0.
        998    1    1    2    0    0  0.31687088350E+01 -0.33002006734E+01  0.14881290838E+04  0.14881697154E+04  0.10000000000E+02 0.  1.
</event>
<event>
 5    1  0.1533416E-008  0.3827629E+03  0.7957747E-01  0.3439216E+00
         13   -1    0    0    0    0  0.00000000000E+00  0.00000000000E+00  0.14999999963E+04  0.15000000000E+04  0.10566000000E+00 0.  1.
        994   -1    0    0    0    0 -0.00000000000E+00 -0.00000000000E+00  0.11368683772E-12  0.17120000000E+03  0.17120000000E+03 0.  0.
         13    1    1    2    0    0 -0.18718603553E+02  0.61460840126E+01  0.63803765648E+02  0.66776434036E+02  0.10566000000E+00 0.  1.
        994    1    1    2    0    0  0.37606919129E+02  0.13253920299E+02  0.80298348469E+01  0.17596552224E+03  0.17120000000E+03 0.  0.
        998    1    1    2    0    0 -0.18888315575E+02 -0.19400004312E+02  0.14281663958E+04  0.14284580437E+04  0.10000000000E+02 0.  1.
</event>
<event>
 5    1  0.1533416E-008  0.3077967E+03  0.7957747E-01  0.3841883E+00
         13   -1    0    0    0    0  0.00000000000E+00  0.00000000000E+00  0.14999999963E+04  0.15000000000E+04  0.10566000000E+00 0. -1.
        994   -1    0    0    0    0 -0.00000000000E+00 -0.00000000000E+00  0.11368683772E-12  0.17120000000E+03  0.17120000000E+03 0.  0.
         13    1    1    2    0    0 -0.14534632240E+03 -0.12671491166E+02  0.83069669251E+03  0.84341159953E+03  0.10566000000E+00 0. -1.
        994    1    1    2    0    0  0.92423587122E+02  0.75105090349E+02  0.65805756415E+02  0.21868409094E+03  0.17120000000E+03 0.  0.
        998    1    1    2    0    0  0.52922735280E+02 -0.62433599183E+02  0.60349754736E+03  0.60910430953E+03  0.10000000000E+02 0.  1.
</event>
<event>
 5    1  0.1533416E-008  0.4199026E+03  0.7957747E-01  0.3293916E+00
         13   -1    0    0    0    0  0.00000000000E+00  0.00000000000E+00  0.14999999963E+04  0.15000000000E+04  0.10566000000E+00 0. -1.
        994   -1    0    0    0    0 -0.00000000000E+00 -0.00000000000E+00  0.11368683772E-12  0.17120000000E+03  0.17120000000E+03 0.  0.
         13    1    1    2    0    0  0.21265665674E+02 -0.67039460959E+02  0.44969813880E+02  0.83479417742E+02  0.10566000000E+00 0. -1.
        994    1    1    2    0    0  0.88430410164E+01  0.86941827729E+02  0.73664012569E+02  0.20584680598E+03  0.17120000000E+03 0.  0.
        998    1    1    2    0    0 -0.30108706691E+02 -0.19902366770E+02  0.13813661698E+04  0.13818737763E+04  0.10000000000E+02 0. -1.
</event>
<event>
 5    1  0.1533416E-008  0.3809526E+03  0.7957747E-01  0.3447021E+00
         13   -1    0    0    0    0  0.00000000000E+00  0.00000000000E+00  0.14999999963E+04  0.15000000000E+04  0.10566000000E+00 0.  1.
        994   -1    0    0    0    0 -0.00000000000E+00 -0.00000000000E+00  0.11368683772E-12  0.17120000000E+03  0.17120000000E+03 0.  0.
         13    1    1    2    0    0 -0.30671665791E+02  0.14640846040E+01  0.15247933676E+03  0.15554052183E+03  0.10566000000E+00 0.  1.
        994    1    1    2    0    0 -0.71336440386E+01  0.52339524170E+00  0.38235871313E+01  0.17139201451E+03  0.17120000000E+03 0.  0.
        998    1    1    2    0    0  0.37805309829E+02 -0.19874798457E+01  0.13436970724E+04  0.13442674637E+04  0.10000000000E+02 0.  1.
</event>
<event>
 5    1  0.1533416E-008  0.3726670E+03  0.7957747E-01  0.3483723E+00
         13   -1    0    0    0    0  0.00000000000E+00  0.00000000000E+00  0.14999999963E+04  0.15000000000E+04  0.10566000000E+00 0.  1.
        994   -1    0    0    0    0 -0.00000000000E+00 -0.00000000000E+00  0.11368683772E-12  0.17120000000E+03  0.17120000000E+03 0.  0.
         13    1    1    2    0    0  0.29615037199E+02 -0.13331753514E+02  0.59580830245E+02  0.67857737781E+02  0.10566000000E+00 0.  1.
        994    1    1    2    0    0 -0.43746857145E+02  0.73941456460E+01  0.14656209144E+02  0.17746184200E+03  0.17120000000E+03 0.  0.
        998    1    1    2    0    0  0.14131819946E+02  0.59376078683E+01  0.14257629569E+04  0.14258804202E+04  0.10000000000E+02 0.  1.
</event>
<event>
 5    1  0.1533416E-008  0.3830044E+03  0.7957747E-01  0.3438180E+00
         13   -1    0    0    0    0  0.00000000000E+00  0.00000000000E+00  0.14999999963E+04  0.15000000000E+04  0.10566000000E+00 0.  1.
        994   -1    0    0    0    0 -0.00000000000E+00 -0.00000000000E+00  0.11368683772E-12  0.17120000000E+03  0.17120000000E+03 0.  0.
         13    1    1    2    0    0  0.21806871444E+02 -0.93395467794E+01  0.11571339911E+03  0.11812014509E+03  0.10566000000E+00 0.  1.
        994    1    1    2    0    0 -0.53962722433E+01 -0.60825401793E+01  0.28430447432E+01  0.17141656849E+03  0.17120000000E+03 0.  0.
        998    1    1    2    0    0 -0.16410599200E+02  0.15422086959E+02  0.13814435524E+04  0.13816632864E+04  0.10000000000E+02 0.  1.
</event>
<event>
 5    1  0.2636770E-008  0.3860476E+03  0.7957747E-01  0.3425241E+00
         13   -1    0    0    0    0  0.00000000000E+00  0.00000000000E+00  0.14999999963E+04  0.15000000000E+04  0.10566000000E+00 0. -1.
        994   -1    0    0    0    0 -0.00000000000E+00 -0.00000000000E+00  0.11368683772E-12  0.17120000000E+03  0.17120000000E+03 0.  0.
         13    1    1    2    0    0 -0.56349815988E+01 -0.10000287218E+02  0.61514664789E+02  0.62576544410E+02  0.10566000000E+00 0. -1.
        994    1    1    2    0    0  0.26988111451E+01  0.35750040058E+01  0.11766538080E+01  0.17126263092E+03  0.17120000000E+03 0.  0.
        998    1    1    2    0    0  0.29361704538E+01  0.64252832121E+01  0.14373086777E+04  0.14373608247E+04  0.10000000000E+02 0. -1.
</event>
<event>
 5    1  0.1533416E-008  0.3852547E+03  0.7957747E-01  0.3428593E+00
         13   -1    0    0    0    0  0.00000000000E+00  0.00000000000E+00  0.14999999963E+04  0.15000000000E+04  0.10566000000E+00 0.  1.
        994   -1    0    0    0    0 -0.00000000000E+00 -0.00000000000E+00  0.11368683772E-12  0.17120000000E+03  0.17120000000E+03 0.  0.
         13    1    1    2    0    0  0.39190048664E+02 -0.12251025952E+02  0.35951847628E+02  0.54575581198E+02  0.10566000000E+00 0.  1.
        994    1    1    2    0    0 -0.39177738566E+02 -0.46412374623E+01  0.25016650223E+02  0.17745903491E+03  0.17120000000E+03 0.  0.
        998    1    1    2    0    0 -0.12310098238E-01  0.16892263415E+02  0.14390314984E+04  0.14391653839E+04  0.10000000000E+02 0.  1.
</event>
<event>
 5    1  0.2742514E-008  0.3863634E+03  0.7957747E-01  0.3423910E+00
         13   -1    0    0    0    0  0.00000000000E+00  0.00000000000E+00  0.14999999963E+04  0.15000000000E+04  0.10566000000E+00 0.  1.
        994   -1    0    0    0    0 -0.00000000000E+00 -0.00000000000E+00  0.11368683772E-12  0.17120000000E+03  0.17120000000E+03 0.  0.
         13    1    1    2    0    0 -0.10882183155E+02 -0.59024312188E+00  0.64585796854E+02  0.65498905460E+02  0.10566000000E+00 0.  1.
        994    1    1    2    0    0  0.47091067724E+01  0.55402220904E+01  0.11278415844E+01  0.17135805138E+03  0.17120000000E+03 0.  0.
        998    1    1    2    0    0  0.61730763825E+01 -0.49499789685E+01  0.14342863578E+04  0.14343430432E+04  0.10000000000E+02 0.  1.
</event>
<event>
 5    1  0.1533416E-008  0.3737202E+03  0.7957747E-01  0.3478967E+00
         13   -1    0    0    0    0  0.00000000000E+00  0.00000000000E+00  0.14999999963E+04  0.15000000000E+04  0.10566000000E+00 0. -1.
        994   -1    0    0    0    0 -0.00000000000E+00 -0.00000000000E+00  0.11368683772E-12  0.17120000000E+03  0.17120000000E+03 0.  0.
         13    1    1    2    0    0 -0.24747039561E+02 -0.86164221445E+01  0.45716092788E+02  0.52693747271E+02  0.10566000000E+00 0. -1.
        994    1    1    2    0    0  0.73535680458E+01 -0.95908975973E+01  0.78362174430E+01  0.17180485029E+03  0.17120000000E+03 0.  0.
        998    1    1    2    0    0  0.17393471515E+02  0.18207319742E+02  0.14464476860E+04  0.14467014024E+04  0.10000000000E+02 0. -1.
</event>
<event>
 5    1  0.1533416E-008  0.3686491E+03  0.7957747E-01  0.3502123E+00
         13   -1    0    0    0    0  0.00000000000E+00  0.00000000000E+00  0.14999999963E+04  0.15000000000E+04  0.10566000000E+00 0. -1.
        994   -1    0    0    0    0 -0.00000000000E+00 -0.00000000000E+00  0.11368683772E-12  0.17120000000E+03  0.17120000000E+03 0.  0.
         13    1    1    2    0    0  0.12417790252E+02 -0.56902162797E+02  0.20721746769E+03  0.21524671362E+03  0.10566000000E+00 0. -1.
        994    1    1    2    0    0  0.12861709076E+02 -0.89709880753E+01  0.11082305319E+02  0.17227350254E+03  0.17120000000E+03 0.  0.
        998    1    1    2    0    0 -0.25279499328E+02  0.65873150873E+02  0.12817002233E+04  0.12836797838E+04  0.10000000000E+02 0. -1.
</event>
<event>
 5    1  0.1533416E-008  0.3832707E+03  0.7957747E-01  0.3437039E+00
         13   -1    0    0    0    0  0.00000000000E+00  0.00000000000E+00  0.14999999963E+04  0.15000000000E+04  0.10566000000E+00 0. -1.
        994   -1    0    0    0    0 -0.00000000000E+00 -0.00000000000E+00  0.11368683772E-12  0.17120000000E+03  0.17120000000E+03 0.  0.
         13    1    1    2    0    0  0.23726519060E+02  0.11938441232E+02  0.14720890780E+03  0.14958592108E+03  0.10566000000E+00 0. -1.
        994    1    1    2    0    0 -0.30648966713E+01 -0.17979399335E+02  0.35920399576E+01  0.17220625756E+03  0.17120000000E+03 0.  0.
        998    1    1    2    0    0 -0.20661622388E+02  0.60409581024E+01  0.13491990485E+04  0.13494078214E+04  0.10000000000E+02 0. -1.
</event>
<event>
 5    1  0.1533416E-008  0.3714806E+03  0.7957747E-01  0.3489114E+00
         13   -1    0    0    0    0  0.00000000000E+00  0.00000000000E+00  0.14999999963E+04  0.15000000000E+04  0.10566000000E+00 0. -1.
        994   -1    0    0    0    0 -0.00000000000E+00 -0.00000000000E+00  0.11368683772E-12  0.17120000000E+03  0.17120000000E+03 0.  0.
         13    1    1    2    0    0 -0.85189692130E+02 -0.23295822803E+02  0.34630617689E+03  0.35739048438E+03  0.10566000000E+00 0. -1.
        994    1    1    2    0    0  0.87000844005E+02  0.19275666651E+02  0.36330285683E+02  0.19639253509E+03  0.17120000000E+03 0.  0.
        998    1    1    2    0    0 -0.18111518753E+01  0.40201561519E+01  0.11173635337E+04  0.11174169805E+04  0.10000000000E+02 0.  0.
</event>
<event>
 5    1  0.1533416E-008  0.3707956E+03  0.7957747E-01  0.3492242E+00
         13   -1    0    0    0    0  0.00000000000E+00  0.00000000000E+00  0.14999999963E+04  0.15000000000E+04  0.10566000000E+00 0.  1.
        994   -1    0    0    0    0 -0.00000000000E+00 -0.00000000000E+00  0.11368683772E-12  0.17120000000E+03  0.17120000000E+03 0.  0.
         13    1    1    2    0    0 -0.29220271793E+02 -0.28026698936E+02  0.68070318896E+02  0.79201638970E+02  0.10566000000E+00 0.  1.
        994    1    1    2    0    0  0.27307707886E+02  0.97233992629E+01  0.14311498194E+02  0.17422546996E+03  0.17120000000E+03 0.  0.
        998    1    1    2    0    0  0.19125639074E+01  0.18303299673E+02  0.14176181792E+04  0.14177728911E+04  0.10000000000E+02 0.  1.
</event>
<event>
 5    1  0.1533416E-008  0.3719212E+03  0.7957747E-01  0.3487108E+00
         13   -1    0    0    0    0  0.00000000000E+00  0.00000000000E+00  0.14999999963E+04  0.15000000000E+04  0.10566000000E+00 0.  1.
        994   -1    0    0    0    0 -0.00000000000E+00 -0.00000000000E+00  0.11368683772E-12  0.17120000000E+03  0.17120000000E+03 0.  0.
         13    1    1    2    0    0  0.23345973966E+02  0.14278405676E+02  0.27650758054E+02  0.38903508249E+02  0.10566000000E+00 0.  1.
        994    1    1    2    0    0  0.23908363678E+01 -0.40871224862E+01  0.12037275552E+02  0.17168796309E+03  0.17120000000E+03 0.  0.
        998    1    1    2    0    0 -0.25736810334E+02 -0.10191283190E+02  0.14603119627E+04  0.14606085287E+04  0.10000000000E+02 0.  1.
</event>
<event>
 5    1  0.1533416E-008  0.3690106E+03  0.7957747E-01  0.3500450E+00
         13   -1    0    0    0    0  0.00000000000E+00  0.00000000000E+00  0.14999999963E+04  0.15000000000E+04  0.10566000000E+00 0.  1.
        994   -1    0    0    0    0 -0.00000000000E+00 -0.00000000000E+00  0.11368683772E-12  0.17120000000E+03  0.17120000000E+03 0.  0.
         13    1    1    2    0    0  0.77468556990E+02 -0.25787564059E+02  0.46564780637E+03  0.47275180224E+03  0.10566000000E+00 0.  1.
        994    1    1    2    0    0 -0.11432076263E+02  0.19888661560E+01  0.10254436482E+02  0.17189892793E+03  0.17120000000E+03 0.  0.
        998    1    1    2    0    0 -0.66036480726E+02  0.23798697903E+02  0.10240977534E+04  0.10265492698E+04  0.10000000000E+02 0.  1.
</event>
<event>
 5    1  0.1533416E-008  0.3755111E+03  0.7957747E-01  0.3470940E+00
         13   -1    0    0    0    0  0.00000000000E+00  0.00000000000E+00  0.14999999963E+04  0.15000000000E+04  0.10566000000E+00 0. -1.
        994   -1    0    0    0    0 -0.00000000000E+00 -0.00000000000E+00  0.11368683772E-12  0.17120000000E+03  0.17120000000E+03 0.  0.
         13    1    1    2    0    0 -0.52430673671E+02 -0.21990669825E+02  0.30668322925E+03  0.31190892801E+03  0.10566000000E+00 0. -1.
        994    1    1    2    0    0  0.14832922369E+02 -0.15501918720E+02  0.79800860787E+01  0.17272361403E+03  0.17120000000E+03 0.  0.
        998    1    1    2    0    0  0.37597751302E+02  0.37492588545E+02  0.11853366809E+04  0.11865674580E+04  0.10000000000E+02 0. -1.
</event>
<event>
 5    1  0.1533416E-008  0.3757124E+03  0.7957747E-01  0.3470043E+00
         13   -1    0    0    0    0  0.00000000000E+00  0.00000000000E+00  0.14999999963E+04  0.15000000000E+04  0.10566000000E+00 0. -1.
        994   -1    0    0    0    0 -0.00000000000E+00 -0.00000000000E+00  0.11368683772E-12  0.17120000000E+03  0.17120000000E+03 0.  0.
         13    1    1    2    0    0  0.22732348230E+02 -0.78654302020E+02  0.39472255403E+03  0.40312425467E+03  0.10566000000E+00 0. -1.
        994    1    1    2    0    0 -0.29713079151E+02  0.74745451421E+02  0.28578452069E+02  0.19130059462E+03  0.17120000000E+03 0.  0.
        998    1    1    2    0    0  0.69807309213E+01  0.39088505989E+01  0.10766989902E+04  0.10767751507E+04  0.10000000000E+02 0. -1.
</event>
<event>
 5    1  0.1533416E-008  0.4041715E+03  0.7957747E-01  0.3352222E+00
         13   -1    0    0    0    0  0.00000000000E+00  0.00000000000E+00  0.14999999963E+04  0.15000000000E+04  0.10566000000E+00 0. -1.
        994   -1    0    0    0    0 -0.00000000000E+00 -0.00000000000E+00  0.11368683772E-12  0.17120000000E+03  0.17120000000E+03 0.  0.
         13    1    1    2    0    0  0.43776560989E+02 -0.13365578884E+02  0.22667918786E+02  0.51077115199E+02  0.10566000000E+00 0. -1.
        994    1    1    2    0    0 -0.37160082934E+02  0.28519733215E+02  0.39084011887E+02  0.18174500524E+03  0.17120000000E+03 0.  0.
        998    1    1    2    0    0 -0.66164780551E+01 -0.15154154331E+02  0.14382480656E+04  0.14383778796E+04  0.10000000000E+02 0. -1.
</event>
<event>
 5    1  0.1533416E-008  0.3840333E+03  0.7957747E-01  0.3433783E+00
         13   -1    0    0    0    0  0.00000000000E+00  0.00000000000E+00  0.14999999963E+04  0.15000000000E+04  0.10566000000E+00 0. -1.
        994   -1    0    0    0    0 -0.00000000000E+00 -0.00000000000E+00  0.11368683772E-12  0.17120000000E+03  0.17120000000E+03 0.  0.
         13    1    1    2    0    0  0.15494641351E+02 -0.46817108229E+01  0.62327617167E+02  0.64395227716E+02  0.10566000000E+00 0. -1.
        994    1    1    2    0    0 -0.12125602510E+02 -0.99598597255E+01  0.29235956661E+01  0.17194248007E+03  0.17120000000E+03 0.  0.
        998    1    1    2    0    0 -0.33690388409E+01  0.14641570548E+02  0.14347487834E+04  0.14348622922E+04  0.10000000000E+02 0. -1.
</event>
<event>
 5    1  0.1533416E-008  0.3719736E+03  0.7957747E-01  0.3486869E+00
         13   -1    0    0    0    0  0.00000000000E+00  0.00000000000E+00  0.14999999963E+04  0.15000000000E+04  0.10566000000E+00 0.  1.
        994   -1    0    0    0    0 -0.00000000000E+00 -0.00000000000E+00  0.11368683772E-12  0.17120000000E+03  0.17120000000E+03 0.  0.
         13    1    1    2    0    0  0.15300257757E+01 -0.46138171339E+02  0.14725705780E+03  0.15432343979E+03  0.10566000000E+00 0.  1.
        994    1    1    2    0    0  0.46054095907E+02 -0.13732399821E+01  0.15567081025E+02  0.17797370466E+03  0.17120000000E+03 0.  0.
        998    1    1    2    0    0 -0.47584121683E+02  0.47511411321E+02  0.13371758575E+04  0.13389028556E+04  0.10000000000E+02 0.  1.
</event>
<event>
 5    1  0.1533416E-008  0.3821827E+03  0.7957747E-01  0.3441709E+00
         13   -1    0    0    0    0  0.00000000000E+00  0.00000000000E+00  0.14999999963E+04  0.15000000000E+04  0.10566000000E+00 0. -1.
        994   -1    0    0    0    0 -0.00000000000E+00 -0.00000000000E+00  0.11368683772E-12  0.17120000000E+03  0.17120000000E+03 0.  0.
         13    1    1    2    0    0 -0.11125987606E+02  0.38473558263E+00  0.18774736206E+02  0.21827448438E+02  0.10566000000E+00 0. -1.
        994    1    1    2    0    0  0.15843482348E+02 -0.99346912813E+00  0.38722228213E+01  0.17197801320E+03  0.17120000000E+03 0.  0.
        998    1    1    2    0    0 -0.47174947421E+01  0.60873354550E+00  0.14773530373E+04  0.14773945384E+04  0.10000000000E+02 0. -1.
</event>
<event>
 5    1  0.1533416E-008  0.3784244E+03  0.7957747E-01  0.3458048E+00
         13   -1    0    0    0    0  0.00000000000E+00  0.00000000000E+00  0.14999999963E+04  0.15000000000E+04  0.10566000000E+00 0.  1.
        994   -1    0    0    0    0 -0.00000000000E+00 -0.00000000000E+00  0.11368683772E-12  0.17120000000E+03  0.17120000000E+03 0.  0.
         13    1    1    2    0    0 -0.15994435405E+02  0.16005307423E+02  0.51307272822E+02  0.56075299714E+02  0.10566000000E+00 0.  1.
        994    1    1    2    0    0  0.93982203863E+01 -0.14828403726E+01  0.52348562055E+01  0.17154407329E+03  0.17120000000E+03 0.  0.
        998    1    1    2    0    0  0.65962150187E+01 -0.14522467051E+02  0.14434578673E+04  0.14435806270E+04  0.10000000000E+02 0.  1.
</event>
<event>
 5    1  0.1533416E-008  0.3713969E+03  0.7957747E-01  0.3489496E+00
         13   -1    0    0    0    0  0.00000000000E+00  0.00000000000E+00  0.14999999963E+04  0.15000000000E+04  0.10566000000E+00 0.  1.
        994   -1    0    0    0    0 -0.00000000000E+00 -0.00000000000E+00  0.11368683772E-12  0.17120000000E+03  0.17120000000E+03 0.  0.
         13    1    1    2    0    0 -0.28020946606E+02 -0.62934804320E+02  0.32547627587E+03  0.33268721100E+03  0.10566000000E+00 0.  1.
        994    1    1    2    0    0  0.95508543840E+00  0.17841035539E+02  0.96399390910E+01  0.17239948713E+03  0.17120000000E+03 0.  0.
        998    1    1    2    0    0  0.27065861168E+02  0.45093768780E+02  0.11648837813E+04  0.11661133019E+04  0.10000000000E+02 0.  1.
</event>
<event>
 5    1  0.1533416E-008  0.3808734E+03  0.7957747E-01  0.3447365E+00
         13   -1    0    0    0    0  0.00000000000E+00  0.00000000000E+00  0.14999999963E+04  0.15000000000E+04  0.10566000000E+00 0. -1.
        994   -1    0    0    0    0 -0.00000000000E+00 -0.00000000000E+00  0.11368683772E-12  0.17120000000E+03  0.17120000000E+03 0.  0.
         13    1    1    2    0    0  0.18315999016E+03  0.13315021429E+03  0.99013575480E+03  0.10156994564E+04  0.10566000000E+00 0. -1.
        994    1    1    2    0    0 -0.18684525207E+03 -0.14634829538E+03  0.22245989779E+03  0.36759599822E+03  0.17120000000E+03 0.  0.
        998    1    1    2    0    0  0.36852619167E+01  0.13198081082E+02  0.28740434370E+03  0.28790454542E+03  0.10000000000E+02 0.  1.
</event>
<event>
 5    1  0.1533416E-008  0.3840370E+03  0.7957747E-01  0.3433767E+00
         13   -1    0    0    0    0  0.00000000000E+00  0.00000000000E+00  0.14999999963E+04  0.15000000000E+04  0.10566000000E+00 0. -1.
        994   -1    0    0    0    0 -0.00000000000E+00 -0.00000000000E+00  0.11368683772E-12  0.17120000000E+03  0.17120000000E+03 0.  0.
         13    1    1    2    0    0  0.12383096971E+02  0.67761260685E+01  0.48978991584E+02  0.50972637324E+02  0.10566000000E+00 0. -1.
        994    1    1    2    0    0 -0.13105903991E+01  0.21989433949E+01  0.21306472817E+01  0.17123239371E+03  0.17120000000E+03 0.  0.
        998    1    1    2    0    0 -0.11072506572E+02 -0.89750694634E+01  0.14488903574E+04  0.14489949690E+04  0.10000000000E+02 0. -1.
</event>
<event>
 5    1  0.1533416E-008  0.3778975E+03  0.7957747E-01  0.3460365E+00
         13   -1    0    0    0    0  0.00000000000E+00  0.00000000000E+00  0.14999999963E+04  0.15000000000E+04  0.10566000000E+00 0.  1.
        994   -1    0    0    0    0 -0.00000000000E+00 -0.00000000000E+00  0.11368683772E-12  0.17120000000E+03  0.17120000000E+03 0.  0.
         13    1    1    2    0    0  0.35630451718E+02 -0.24572709797E+02  0.14754350250E+03  0.15376099456E+03  0.10566000000E+00 0.  1.
        994    1    1    2    0    0 -0.50011504352E+02  0.32502602782E+02  0.17269170356E+02  0.18211324499E+03  0.17120000000E+03 0.  0.
        998    1    1    2    0    0  0.14381052634E+02 -0.79298929844E+01  0.13351873234E+04  0.13353257604E+04  0.10000000000E+02 0.  1.
</event>
<event>
 5    1  0.1533416E-008  0.3797150E+03  0.7957747E-01  0.3452401E+00
         13   -1    0    0    0    0  0.00000000000E+00  0.00000000000E+00  0.14999999963E+04  0.15000000000E+04  0.10566000000E+00 0. -1.
        994   -1    0    0    0    0 -0.00000000000E+00 -0.00000000000E+00  0.11368683772E-12  0.17120000000E+03  0.17120000000E+03 0.  0.
         13    1    1    2    0    0  0.30578408749E+02 -0.24522498867E+02  0.20157485839E+03  0.20535049727E+03  0.10566000000E+00 0. -1.
        994    1    1    2    0    0 -0.72875536550E+01  0.75488688558E+00  0.44567318448E+01  0.17141464567E+03  0.17120000000E+03 0.  0.
        998    1    1    2    0    0 -0.23290855094E+02  0.23767611982E+02  0.12939684060E+04  0.12944348571E+04  0.10000000000E+02 0. -1.
</event>
<event>
 5    1  0.1533416E-008  0.3759095E+03  0.7957747E-01  0.3469165E+00
         13   -1    0    0    0    0  0.00000000000E+00  0.00000000000E+00  0.14999999963E+04  0.15000000000E+04  0.10566000000E+00 0. -1.
        994   -1    0    0    0    0 -0.00000000000E+00 -0.00000000000E+00  0.11368683772E-12  0.17120000000E+03  0.17120000000E+03 0.  0.
         13    1    1    2    0    0 -0.12290242589E+03  0.94409531936E+02  0.93344701278E+03  0.94622486907E+03  0.10566000000E+00 0. -1.
        994    1    1    2    0    0  0.10974187569E+03 -0.85497086364E+02  0.74901312195E+02  0.23296497081E+03  0.17120000000E+03 0.  0.
        998    1    1    2    0    0  0.13160550208E+02 -0.89124455720E+01  0.49165167130E+03  0.49201016012E+03  0.10000000000E+02 0. -1.
</event>
<event>
 5    1  0.1533416E-008  0.3799056E+03  0.7957747E-01  0.3451570E+00
         13   -1    0    0    0    0  0.00000000000E+00  0.00000000000E+00  0.14999999963E+04  0.15000000000E+04  0.10566000000E+00 0. -1.
        994   -1    0    0    0    0 -0.00000000000E+00 -0.00000000000E+00  0.11368683772E-12  0.17120000000E+03  0.17120000000E+03 0.  0.
         13    1    1    2    0    0 -0.12268272206E+02 -0.13878385137E+02  0.38732611964E+02  0.42934210957E+02  0.10566000000E+00 0. -1.
        994    1    1    2    0    0  0.15360518086E+02  0.99419525228E+01  0.53011226023E+01  0.17225658140E+03  0.17120000000E+03 0.  0.
        998    1    1    2    0    0 -0.30922458798E+01  0.39364326145E+01  0.14559662617E+04  0.14560092076E+04  0.10000000000E+02 0. -1.
</event>
<event>
 5    1  0.1533416E-008  0.3818555E+03  0.7957747E-01  0.3443119E+00
         13   -1    0    0    0    0  0.00000000000E+00  0.00000000000E+00  0.14999999963E+04  0.15000000000E+04  0.10566000000E+00 0. -1.
        994   -1    0    0    0    0 -0.00000000000E+00 -0.00000000000E+00  0.11368683772E-12  0.17120000000E+03  0.17120000000E+03 0.  0.
         13    1    1    2    0    0 -0.59942162192E+01 -0.28972717227E+02  0.17422134009E+03  0.17671569110E+03  0.10566000000E+00 0. -1.
        994    1    1    2    0    0  0.17397617245E+00 -0.13697412876E+02  0.38231439460E+01  0.17178971394E+03  0.17120000000E+03 0.  0.
        998    1    1    2    0    0  0.58202400468E+01  0.42670130103E+02  0.13219555122E+04  0.13226945950E+04  0.10000000000E+02 0. -1.
</event>
<event>
 5    1  0.1533416E-008  0.3828315E+03  0.7957747E-01  0.3438921E+00
         13   -1    0    0    0    0  0.00000000000E+00  0.00000000000E+00  0.14999999963E+04  0.15000000000E+04  0.10566000000E+00 0. -1.
        994   -1    0    0    0    0 -0.00000000000E+00 -0.00000000000E+00  0.11368683772E-12  0.17120000000E+03  0.17120000000E+03 0.  0.
         13    1    1    2    0    0  0.85920081940E+01  0.52589616117E+01  0.17524922472E+02  0.20214186942E+02  0.10566000000E+00 0. -1.
        994    1    1    2    0    0 -0.71641845804E+01 -0.74448506890E+01  0.30642223392E+01  0.17153886091E+03  0.17120000000E+03 0.  0.
        998    1    1    2    0    0 -0.14278236137E+01  0.21858890773E+01  0.14794108515E+04  0.14794469522E+04  0.10000000000E+02 0. -1.
</event>
<event>
 5    1  0.1533416E-008  0.3929132E+03  0.7957747E-01  0.3396789E+00
         13   -1    0    0    0    0  0.00000000000E+00  0.00000000000E+00  0.14999999963E+04  0.15000000000E+04  0.10566000000E+00 0. -1.
        994   -1    0    0    0    0 -0.00000000000E+00 -0.00000000000E+00  0.11368683772E-12  0.17120000000E+03  0.17120000000E+03 0.  0.
         13    1    1    2    0    0 -0.54318313313E+02 -0.70937573072E+02  0.24458844645E+03  0.26039611698E+03  0.10566000000E+00 0. -1.
        994    1    1    2    0    0 -0.11177012682E+02 -0.41038400283E+02  0.30524234005E+02  0.17902582152E+03  0.17120000000E+03 0.  0.
        998    1    1    2    0    0  0.65495325995E+02  0.11197597335E+03  0.12248873158E+04  0.12317780615E+04  0.10000000000E+02 0. -1.
</event>
<event>
 5    1  0.1533416E-008  0.3826615E+03  0.7957747E-01  0.3439651E+00
         13   -1    0    0    0    0  0.00000000000E+00  0.00000000000E+00  0.14999999963E+04  0.15000000000E+04  0.10566000000E+00 0. -1.
        994   -1    0    0    0    0 -0.00000000000E+00 -0.00000000000E+00  0.11368683772E-12  0.17120000000E+03  0.17120000000E+03 0.  0.
         13    1    1    2    0    0  0.46968356951E+01  0.28625008736E+02  0.13371050249E+03  0.13682090860E+03  0.10566000000E+00 0. -1.
        994    1    1    2    0    0 -0.66545092754E+01 -0.32852559224E+02  0.65278491964E+01  0.17457269533E+03  0.17120000000E+03 0.  0.
        998    1    1    2    0    0  0.19576735803E+01  0.42275504877E+01  0.13597616446E+04  0.13598063961E+04  0.10000000000E+02 0. -1.
</event>
<event>
 5    1  0.1533416E-008  0.3796618E+03  0.7957747E-01  0.3452633E+00
         13   -1    0    0    0    0  0.00000000000E+00  0.00000000000E+00  0.14999999963E+04  0.15000000000E+04  0.10566000000E+00 0.  1.
        994   -1    0    0    0    0 -0.00000000000E+00 -0.00000000000E+00  0.11368683772E-12  0.17120000000E+03  0.17120000000E+03 0.  0.
         13    1    1    2    0    0  0.21252612653E+02  0.19460716443E+01  0.54295782482E+02  0.58339556896E+02  0.10566000000E+00 0.  1.
        994    1    1    2    0    0  0.47704331947E+01 -0.50845716727E+02  0.13082123631E+02  0.17913298384E+03  0.17120000000E+03 0.  0.
        998    1    1    2    0    0 -0.26023045848E+02  0.48899645083E+02  0.14326220902E+04  0.14337274593E+04  0.10000000000E+02 0.  1.
</event>
<event>
 5    1  0.1533416E-008  0.3847703E+03  0.7957747E-01  0.3430647E+00
         13   -1    0    0    0    0  0.00000000000E+00  0.00000000000E+00  0.14999999963E+04  0.15000000000E+04  0.10566000000E+00 0.  1.
        994   -1    0    0    0    0 -0.00000000000E+00 -0.00000000000E+00  0.11368683772E-12  0.17120000000E+03  0.17120000000E+03 0.  0.
         13    1    1    2    0    0  0.23947976467E+01  0.17304342633E+02  0.94571645823E+02  0.96171631406E+02  0.10566000000E+00 0.  1.
        994    1    1    2    0    0 -0.19043941393E+01 -0.47022202225E+00  0.17568781601E+01  0.17122025127E+03  0.17120000000E+03 0.  0.
        998    1    1    2    0    0 -0.49040350740E+00 -0.16834120611E+02  0.14036714723E+04  0.14038081173E+04  0.10000000000E+02 0.  1.
</event>
<event>
 5    1  0.1533416E-008  0.3853859E+03  0.7957747E-01  0.3428037E+00
         13   -1    0    0    0    0  0.00000000000E+00  0.00000000000E+00  0.14999999963E+04  0.15000000000E+04  0.10566000000E+00 0.  1.
        994   -1    0    0    0    0 -0.00000000000E+00 -0.00000000000E+00  0.11368683772E-12  0.17120000000E+03  0.17120000000E+03 0.  0.
         13    1    1    2    0    0  0.14603091971E+02 -0.60099865077E+01  0.86323195931E+02  0.87755772190E+02  0.10566000000E+00 0.  1.
        994    1    1    2    0    0 -0.90454906838E+01  0.76553316256E+01  0.19000337190E+01  0.17162014780E+03  0.17120000000E+03 0.  0.
        998    1    1    2    0    0 -0.55576012868E+01 -0.16453451178E+01  0.14117767666E+04  0.14118240800E+04  0.10000000000E+02 0.  1.
</event>
<event>
 5    1  0.1533416E-008  0.3808386E+03  0.7957747E-01  0.3447515E+00
         13   -1    0    0    0    0  0.00000000000E+00  0.00000000000E+00  0.14999999963E+04  0.15000000000E+04  0.10566000000E+00 0.  1.
        994   -1    0    0    0    0 -0.00000000000E+00 -0.00000000000E+00  0.11368683772E-12  0.17120000000E+03  0.17120000000E+03 0.  0.
         13    1    1    2    0    0  0.42375060094E+01  0.10314680031E+02  0.15582478403E+02  0.19161781716E+02  0.10566000000E+00 0.  1.
        994    1    1    2    0    0 -0.63348398283E+01  0.48146612171E+01  0.39215208876E+01  0.17142966337E+03  0.17120000000E+03 0.  0.
        998    1    1    2    0    0  0.20973338189E+01 -0.15129341248E+02  0.14804959970E+04  0.14806085549E+04  0.10000000000E+02 0.  1.
</event>
<event>
 5    1  0.1533416E-008  0.3847890E+03  0.7957747E-01  0.3430567E+00
         13   -1    0    0    0    0  0.00000000000E+00  0.00000000000E+00  0.14999999963E+04  0.15000000000E+04  0.10566000000E+00 0. -1.
        994   -1    0    0    0    0 -0.00000000000E+00 -0.00000000000E+00  0.11368683772E-12  0.17120000000E+03  0.17120000000E+03 0.  0.
         13    1    1    2    0    0 -0.69067687826E+01 -0.16797851409E+02  0.10220646592E+03  0.10380772662E+03  0.10566000000E+00 0. -1.
        994    1    1    2    0    0 -0.16705092975E+02  0.99550471130E+01  0.29804046741E+01  0.17232668367E+03  0.17120000000E+03 0.  0.
        998    1    1    2    0    0  0.23611861758E+02  0.68428042959E+01  0.13948131257E+04  0.13950655897E+04  0.10000000000E+02 0. -1.
</event>
<event>
 5    1  0.1533416E-008  0.3844924E+03  0.7957747E-01  0.3431828E+00
         13   -1    0    0    0    0  0.00000000000E+00  0.00000000000E+00  0.14999999963E+04  0.15000000000E+04  0.10566000000E+00 0.  1.
        994   -1    0    0    0    0 -0.00000000000E+00 -0.00000000000E+00  0.11368683772E-12  0.17120000000E+03  0.17120000000E+03 0.  0.
         13    1    1    2    0    0  0.63744973934E+01  0.13720407106E+02  0.58821177348E+02  0.60735704959E+02  0.10566000000E+00 0.  1.
        994    1    1    2    0    0 -0.48435995613E+01 -0.14431203890E+02  0.26460586952E+01  0.17189578741E+03  0.17120000000E+03 0.  0.
        998    1    1    2    0    0 -0.15308978321E+01  0.71079678353E+00  0.14385327602E+04  0.14385685076E+04  0.10000000000E+02 0.  1.
</event>
<event>
 5    1  0.1533416E-008  0.3858398E+03  0.7957747E-01  0.3426118E+00
         13   -1    0    0    0    0  0.00000000000E+00  0.00000000000E+00  0.14999999963E+04  0.15000000000E+04  0.10566000000E+00 0. -1.
        994   -1    0    0    0    0 -0.00000000000E+00 -0.00000000000E+00  0.11368683772E-12  0.17120000000E+03  0.17120000000E+03 0.  0.
         13    1    1    2    0    0  0.10853228803E+02  0.42728513468E+00  0.54180455730E+02  0.55258556760E+02  0.10566000000E+00 0. -1.
        994    1    1    2    0    0  0.51607096868E+01  0.28461489678E+02  0.39626712902E+01  0.17367162141E+03  0.17120000000E+03 0.  0.
        998    1    1    2    0    0 -0.16013938490E+02 -0.28888774813E+02  0.14418568693E+04  0.14422698218E+04  0.10000000000E+02 0. -1.
</event>
<event>
 5    1  0.1533416E-008  0.3827062E+03  0.7957747E-01  0.3439459E+00
         13   -1    0    0    0    0  0.00000000000E+00  0.00000000000E+00  0.14999999963E+04  0.15000000000E+04  0.10566000000E+00 0.  1.
        994   -1    0    0    0    0 -0.00000000000E+00 -0.00000000000E+00  0.11368683772E-12  0.17120000000E+03  0.17120000000E+03 0.  0.
         13    1    1    2    0    0 -0.14065725178E+02  0.24767596692E+02  0.14072251486E+03  0.14357616732E+03  0.10566000000E+00 0.  1.
        994    1    1    2    0    0 -0.59410861255E+01 -0.28775057304E+02  0.56388818572E+01  0.17379452643E+03  0.17120000000E+03 0.  0.
        998    1    1    2    0    0  0.20006811304E+02  0.40074606119E+01  0.13536385996E+04  0.13538293063E+04  0.10000000000E+02 0.  1.
</event>
<event>
 5    1  0.1533416E-008  0.3843823E+03  0.7957747E-01  0.3432296E+00
         13   -1    0    0    0    0  0.00000000000E+00  0.00000000000E+00  0.14999999963E+04  0.15000000000E+04  0.10566000000E+00 0. -1.
        994   -1    0    0    0    0 -0.00000000000E+00 -0.00000000000E+00  0.11368683772E-12  0.17120000000E+03  0.17120000000E+03 0.  0.
         13    1    1    2    0    0  0.59180783607E+01  0.14473561110E+02  0.68504271649E+02  0.70266307865E+02  0.10566000000E+00 0. -1.
        994    1    1    2    0    0  0.72325566598E+00  0.39938478547E+01  0.19913996548E+01  0.17125968467E+03  0.17120000000E+03 0.  0.
        998    1    1    2    0    0 -0.66413340267E+01 -0.18467408965E+02  0.14295043250E+04  0.14296740075E+04  0.10000000000E+02 0. -1.
</event>
<event>
 5    1  0.1533416E-008  0.3862911E+03  0.7957747E-01  0.3424215E+00
         13   -1    0    0    0    0  0.00000000000E+00  0.00000000000E+00  0.14999999963E+04  0.15000000000E+04  0.10566000000E+00 0. -1.
        994   -1    0    0    0    0 -0.00000000000E+00 -0.00000000000E+00  0.11368683772E-12  0.17120000000E+03  0.17120000000E+03 0.  0.
         13    1    1    2    0    0 -0.62687654200E+01  0.78198125064E+01  0.55018809175E+02  0.55924300752E+02  0.10566000000E+00 0. -1.
        994    1    1    2    0    0  0.24792274208E+01  0.42823871625E+01  0.10706461418E+01  0.17127484255E+03  0.17120000000E+03 0.  0.
        998    1    1    2    0    0  0.37895379992E+01 -0.12102199669E+02  0.14439105410E+04  0.14440008567E+04  0.10000000000E+02 0. -1.
</event>
<event>
 5    1  0.1533416E-008  0.3790979E+03  0.7957747E-01  0.3455096E+00
         13   -1    0    0    0    0  0.00000000000E+00  0.00000000000E+00  0.14999999963E+04  0.15000000000E+04  0.10566000000E+00 0.  1.
        994   -1    0    0    0    0 -0.00000000000E+00 -0.00000000000E+00  0.11368683772E-12  0.17120000000E+03  0.17120000000E+03 0.  0.
         13    1    1    2    0    0  0.10163186865E+02  0.88230343591E+01  0.17536521449E+02  0.22106041055E+02  0.10566000000E+00 0.  1.
        994    1    1    2    0    0 -0.12239166878E+02 -0.86419917899E+01  0.53422085369E+01  0.17193737354E+03  0.17120000000E+03 0.  0.
        998    1    1    2    0    0  0.20759800121E+01 -0.18104256924E+00  0.14771212663E+04  0.14771565854E+04  0.10000000000E+02 0.  1.
</event>
<event>
 5    1  0.1533416E-008  0.3841106E+03  0.7957747E-01  0.3433453E+00
         13   -1    0    0    0    0  0.00000000000E+00  0.00000000000E+00  0.14999999963E+04  0.15000000000E+04  0.10566000000E+00 0. -1.
        994   -1    0    0    0    0 -0.00000000000E+00 -0.00000000000E+00  0.11368683772E-12  0.17120000000E+03  0.17120000000E+03 0.  0.
         13    1    1    2    0    0 -0.20324294131E+02 -0.91109940957E+01  0.12055668028E+03  0.12259694723E+03  0.10566000000E+00 0. -1.
        994    1    1    2    0    0  0.15836207731E+02 -0.45377079468E+01  0.29679187917E+01  0.17201635042E+03  0.17120000000E+03 0.  0.
        998    1    1    2    0    0  0.44880864001E+01  0.13648702043E+02  0.13764753972E+04  0.13765867024E+04  0.10000000000E+02 0. -1.
</event>
<event>
 5    1  0.1533416E-008  0.3758092E+03  0.7957747E-01  0.3469612E+00
         13   -1    0    0    0    0  0.00000000000E+00  0.00000000000E+00  0.14999999963E+04  0.15000000000E+04  0.10566000000E+00 0.  1.
        994   -1    0    0    0    0 -0.00000000000E+00 -0.00000000000E+00  0.11368683772E-12  0.17120000000E+03  0.17120000000E+03 0.  0.
         13    1    1    2    0    0  0.22269429208E+00  0.51695606980E+02  0.24386743971E+03  0.24928663159E+03  0.10566000000E+00 0.  1.
        994    1    1    2    0    0 -0.88608323197E+02 -0.19864441720E+02  0.34750955756E+02  0.19688346784E+03  0.17120000000E+03 0.  0.
        998    1    1    2    0    0  0.88385628905E+02 -0.31831165260E+02  0.12213816008E+04  0.12250299006E+04  0.10000000000E+02 0.  1.
</event>
<event>
 5    1  0.1533416E-008  0.3848032E+03  0.7957747E-01  0.3430507E+00
         13   -1    0    0    0    0  0.00000000000E+00  0.00000000000E+00  0.14999999963E+04  0.15000000000E+04  0.10566000000E+00 0.  1.
        994   -1    0    0    0    0 -0.00000000000E+00 -0.00000000000E+00  0.11368683772E-12  0.17120000000E+03  0.17120000000E+03 0.  0.
         13    1    1    2    0    0  0.15423941102E+02 -0.12115308355E+02  0.99621502114E+02  0.10153390322E+03  0.10566000000E+00 0.  1.
        994    1    1    2    0    0 -0.21371134630E+02  0.16808871484E+02  0.41643960729E+01  0.17339563360E+03  0.17120000000E+03 0.  0.
        998    1    1    2    0    0  0.59471935282E+01 -0.46935631292E+01  0.13962140981E+04  0.13962704632E+04  0.10000000000E+02 0. -1.
</event>
<event>
 5    1  0.1533416E-008  0.3737225E+03  0.7957747E-01  0.3478956E+00
         13   -1    0    0    0    0  0.00000000000E+00  0.00000000000E+00  0.14999999963E+04  0.15000000000E+04  0.10566000000E+00 0. -1.
        994   -1    0    0    0    0 -0.00000000000E+00 -0.00000000000E+00  0.11368683772E-12  0.17120000000E+03  0.17120000000E+03 0.  0.
         13    1    1    2    0    0  0.31425505869E+02 -0.10366618356E+02  0.67727552651E+02  0.75379451758E+02  0.10566000000E+00 0. -1.
        994    1    1    2    0    0 -0.35470945697E+02  0.15120204104E+02  0.12429023547E+02  0.17592819327E+03  0.17120000000E+03 0.  0.
        998    1    1    2    0    0  0.40454398283E+01 -0.47535857482E+01  0.14198434201E+04  0.14198923550E+04  0.10000000000E+02 0. -1.
</event>
<event>
 5    1  0.1533416E-008  0.3718277E+03  0.7957747E-01  0.3487533E+00
         13   -1    0    0    0    0  0.00000000000E+00  0.00000000000E+00  0.14999999963E+04  0.15000000000E+04  0.10566000000E+00 0.  1.
        994   -1    0    0    0    0 -0.00000000000E+00 -0.00000000000E+00  0.11368683772E-12  0.17120000000E+03  0.17120000000E+03 0.  0.
         13    1    1    2    0    0 -0.32937785203E+02  0.67466053015E+01  0.67577356824E+02  0.75479299788E+02  0.10566000000E+00 0.  1.
        994    1    1    2    0    0  0.60300614260E+01 -0.16743544933E+02  0.94058364965E+01  0.17237928442E+03  0.17120000000E+03 0.  0.
        998    1    1    2    0    0  0.26907723777E+02  0.99969396310E+01  0.14230168030E+04  0.14233414158E+04  0.10000000000E+02 0.  1.
</event>
<event>
 5    1  0.1533416E-008  0.3850642E+03  0.7957747E-01  0.3429400E+00
         13   -1    0    0    0    0  0.00000000000E+00  0.00000000000E+00  0.14999999963E+04  0.15000000000E+04  0.10566000000E+00 0. -1.
        994   -1    0    0    0    0 -0.00000000000E+00 -0.00000000000E+00  0.11368683772E-12  0.17120000000E+03  0.17120000000E+03 0.  0.
         13    1    1    2    0    0  0.35356956625E+01 -0.14436808085E+02  0.70447298990E+02  0.71998303248E+02  0.10566000000E+00 0. -1.
        994    1    1    2    0    0 -0.21397516600E+02  0.25546681749E+01  0.31266071379E+01  0.17257924475E+03  0.17120000000E+03 0.  0.
        998    1    1    2    0    0  0.17861820938E+02  0.11882139910E+02  0.14264260902E+04  0.14266224520E+04  0.10000000000E+02 0. -1.
</event>
<event>
 5    1  0.1533416E-008  0.3836793E+03  0.7957747E-01  0.3435293E+00
         13   -1    0    0    0    0  0.00000000000E+00  0.00000000000E+00  0.14999999963E+04  0.15000000000E+04  0.10566000000E+00 0.  1.
        994   -1    0    0    0    0 -0.00000000000E+00 -0.00000000000E+00  0.11368683772E-12  0.17120000000E+03  0.17120000000E+03 0.  0.
         13    1    1    2    0    0 -0.20203907642E+01 -0.20450057692E+02  0.10407163181E+03  0.10608111307E+03  0.10566000000E+00 0.  1.
        994    1    1    2    0    0 -0.30153249148E+01 -0.47791825754E+01  0.23927577963E+01  0.17130994735E+03  0.17120000000E+03 0.  0.
        998    1    1    2    0    0  0.50357156790E+01  0.25229240267E+02  0.13935356067E+04  0.13938089396E+04  0.10000000000E+02 0.  1.
</event>
<event>
 5    1  0.1533416E-008  0.2642732E+03  0.7957747E-01  0.4189493E+00
         13   -1    0    0    0    0  0.00000000000E+00  0.00000000000E+00  0.14999999963E+04  0.15000000000E+04  0.10566000000E+00 0.  1.
        994   -1    0    0    0    0 -0.00000000000E+00 -0.00000000000E+00  0.11368683772E-12  0.17120000000E+03  0.17120000000E+03 0.  0.
         13    1    1    2    0    0 -0.13211888324E+03  0.95113210628E+02  0.66182985186E+03  0.68155754425E+03  0.10566000000E+00 0.  1.
        994    1    1    2    0    0 -0.33736839173E+02 -0.64339826726E+02  0.63137113493E+02  0.19640143258E+03  0.17120000000E+03 0.  0.
        998    1    1    2    0    0  0.16585572241E+03 -0.30773383903E+02  0.77503303092E+03  0.79324102317E+03  0.10000000000E+02 0. -1.
</event>
<event>
 5    1  0.1533416E-008  0.3858787E+03  0.7957747E-01  0.3425954E+00
         13   -1    0    0    0    0  0.00000000000E+00  0.00000000000E+00  0.14999999963E+04  0.15000000000E+04  0.10566000000E+00 0. -1.
        994   -1    0    0    0    0 -0.00000000000E+00 -0.00000000000E+00  0.11368683772E-12  0.17120000000E+03  0.17120000000E+03 0.  0.
         13    1    1    2    0    0 -0.12478142218E+02  0.13397297174E+01  0.64372674218E+02  0.65584687687E+02  0.10566000000E+00 0. -1.
        994    1    1    2    0    0  0.12746054971E+02 -0.28705546706E+01  0.17545079225E+01  0.17170678583E+03  0.17120000000E+03 0.  0.
        998    1    1    2    0    0 -0.26791275241E+00  0.15308249532E+01  0.14338728141E+04  0.14339085265E+04  0.10000000000E+02 0. -1.
</event>
<event>
 5    1  0.1533416E-008  0.3771208E+03  0.7957747E-01  0.3463792E+00
         13   -1    0    0    0    0  0.00000000000E+00  0.00000000000E+00  0.14999999963E+04  0.15000000000E+04  0.10566000000E+00 0. -1.
        994   -1    0    0    0    0 -0.00000000000E+00 -0.00000000000E+00  0.11368683772E-12  0.17120000000E+03  0.17120000000E+03 0.  0.
         13    1    1    2    0    0 -0.31993194129E+01 -0.56459999460E+02  0.27596742089E+03  0.28170196261E+03  0.10566000000E+00 0. -1.
        994    1    1    2    0    0  0.19230342990E+02  0.35376425377E+02  0.11085266420E+02  0.17622037537E+03  0.17120000000E+03 0.  0.
        998    1    1    2    0    0 -0.16031023577E+02  0.21083574083E+02  0.12129473090E+04  0.12132776620E+04  0.10000000000E+02 0. -1.
</event>
<event>
 5    1  0.1533416E-008  0.3844820E+03  0.7957747E-01  0.3431872E+00
         13   -1    0    0    0    0  0.00000000000E+00  0.00000000000E+00  0.14999999963E+04  0.15000000000E+04  0.10566000000E+00 0.  1.
        994   -1    0    0    0    0 -0.00000000000E+00 -0.00000000000E+00  0.11368683772E-12  0.17120000000E+03  0.17120000000E+03 0.  0.
         13    1    1    2    0    0  0.16647439458E+01  0.18957393152E+02  0.93186579864E+02  0.95109957198E+02  0.10566000000E+00 0.  1.
        994    1    1    2    0    0 -0.75776934287E+01 -0.15347416324E+02  0.28532288220E+01  0.17207714997E+03  0.17120000000E+03 0.  0.
        998    1    1    2    0    0  0.59129494830E+01 -0.36099768287E+01  0.14039601876E+04  0.14040128928E+04  0.10000000000E+02 0.  1.
</event>
<event>
 5    1  0.1533416E-008  0.3857056E+03  0.7957747E-01  0.3426685E+00
         13   -1    0    0    0    0  0.00000000000E+00  0.00000000000E+00  0.14999999963E+04  0.15000000000E+04  0.10566000000E+00 0.  1.
        994   -1    0    0    0    0 -0.00000000000E+00 -0.00000000000E+00  0.11368683772E-12  0.17120000000E+03  0.17120000000E+03 0.  0.
         13    1    1    2    0    0  0.43092565035E+01  0.98293205595E+01  0.44002426529E+02  0.45292493184E+02  0.10566000000E+00 0.  1.
        994    1    1    2    0    0 -0.62239331362E+01 -0.10549178676E+02  0.17726276905E+01  0.17164674399E+03  0.17120000000E+03 0.  0.
        998    1    1    2    0    0  0.19146766327E+01  0.71985811643E+00  0.14542249421E+04  0.14542607628E+04  0.10000000000E+02 0.  1.
</event>
<event>
 5    1  0.1533416E-008  0.3848709E+03  0.7957747E-01  0.3430220E+00
         13   -1    0    0    0    0  0.00000000000E+00  0.00000000000E+00  0.14999999963E+04  0.15000000000E+04  0.10566000000E+00 0. -1.
        994   -1    0    0    0    0 -0.00000000000E+00 -0.00000000000E+00  0.11368683772E-12  0.17120000000E+03  0.17120000000E+03 0.  0.
         13    1    1    2    0    0  0.98828946389E+01  0.81091487142E+01  0.48682554134E+02  0.50333211107E+02  0.10566000000E+00 0. -1.
        994    1    1    2    0    0  0.20284298660E+01 -0.12654250512E+02  0.22347990016E+01  0.17169356106E+03  0.17120000000E+03 0.  0.
        998    1    1    2    0    0 -0.11911324505E+02  0.45451017979E+01  0.14490826431E+04  0.14491732278E+04  0.10000000000E+02 0. -1.
</event>
<event>
 5    1  0.1533416E-008  0.3785505E+03  0.7957747E-01  0.3457494E+00
         13   -1    0    0    0    0  0.00000000000E+00  0.00000000000E+00  0.14999999963E+04  0.15000000000E+04  0.10566000000E+00 0. -1.
        994   -1    0    0    0    0 -0.00000000000E+00 -0.00000000000E+00  0.11368683772E-12  0.17120000000E+03  0.17120000000E+03 0.  0.
         13    1    1    2    0    0 -0.27208242302E+02  0.22144098607E+01  0.72466768445E+02  0.77437947758E+02  0.10566000000E+00 0. -1.
        994    1    1    2    0    0  0.25612044657E+02  0.89445490271E+01  0.73427229655E+01  0.17349160605E+03  0.17120000000E+03 0.  0.
        998    1    1    2    0    0  0.15961976448E+01 -0.11158958888E+02  0.14201905049E+04  0.14202704462E+04  0.10000000000E+02 0. -1.
</event>
<event>
 5    1  0.1533416E-008  0.3790744E+03  0.7957747E-01  0.3455199E+00
         13   -1    0    0    0    0  0.00000000000E+00  0.00000000000E+00  0.14999999963E+04  0.15000000000E+04  0.10566000000E+00 0.  1.
        994   -1    0    0    0    0 -0.00000000000E+00 -0.00000000000E+00  0.11368683772E-12  0.17120000000E+03  0.17120000000E+03 0.  0.
         13    1    1    2    0    0  0.97089222546E+02  0.13548243627E+02  0.43599768700E+03  0.44688238528E+03  0.10566000000E+00 0.  1.
        994    1    1    2    0    0 -0.14954273581E+03  0.13292864121E+02  0.84321165889E+02  0.24281521593E+03  0.17120000000E+03 0.  0.
        998    1    1    2    0    0  0.52453513263E+02 -0.26841107748E+02  0.97968114339E+03  0.98150239879E+03  0.10000000000E+02 0.  1.
</event>
<event>
 5    1  0.1533416E-008  0.3828531E+03  0.7957747E-01  0.3438829E+00
         13   -1    0    0    0    0  0.00000000000E+00  0.00000000000E+00  0.14999999963E+04  0.15000000000E+04  0.10566000000E+00 0. -1.
        994   -1    0    0    0    0 -0.00000000000E+00 -0.00000000000E+00  0.11368683772E-12  0.17120000000E+03  0.17120000000E+03 0.  0.
         13    1    1    2    0    0 -0.17668915859E+01 -0.29353249707E+02  0.14435660819E+03  0.14732133813E+03  0.10566000000E+00 0. -1.
        994    1    1    2    0    0  0.51487651853E+00  0.30903306224E+02  0.58698194398E+01  0.17406657983E+03  0.17120000000E+03 0.  0.
        998    1    1    2    0    0  0.12520150673E+01 -0.15500565173E+01  0.13497735686E+04  0.13498120820E+04  0.10000000000E+02 0. -1.
</event>
<event>
 5    1  0.1533416E-008  0.3821962E+03  0.7957747E-01  0.3441651E+00
         13   -1    0    0    0    0  0.00000000000E+00  0.00000000000E+00  0.14999999963E+04  0.15000000000E+04  0.10566000000E+00 0. -1.
        994   -1    0    0    0    0 -0.00000000000E+00 -0.00000000000E+00  0.11368683772E-12  0.17120000000E+03  0.17120000000E+03 0.  0.
         13    1    1    2    0    0  0.71309758183E+02 -0.24003089494E+02  0.13641807463E+03  0.15579195154E+03  0.10566000000E+00 0. -1.
        994    1    1    2    0    0 -0.77471804826E+02  0.38851937519E+02  0.45523359509E+02  0.19721351336E+03  0.17120000000E+03 0.  0.
        998    1    1    2    0    0  0.61620466426E+01 -0.14848848026E+02  0.13180585621E+04  0.13181945351E+04  0.10000000000E+02 0. -1.
</event>
<event>
 5    1  0.1533416E-008  0.3805179E+03  0.7957747E-01  0.3448907E+00
         13   -1    0    0    0    0  0.00000000000E+00  0.00000000000E+00  0.14999999963E+04  0.15000000000E+04  0.10566000000E+00 0. -1.
        994   -1    0    0    0    0 -0.00000000000E+00 -0.00000000000E+00  0.11368683772E-12  0.17120000000E+03  0.17120000000E+03 0.  0.
         13    1    1    2    0    0  0.10446582203E+02  0.28717473009E+01  0.13349046674E+02  0.17192621191E+02  0.10566000000E+00 0. -1.
        994    1    1    2    0    0 -0.10327452488E+02 -0.78129782747E+01  0.44318103012E+01  0.17174626589E+03  0.17120000000E+03 0.  0.
        998    1    1    2    0    0 -0.11912971447E+00  0.49412309738E+01  0.14822191393E+04  0.14822611129E+04  0.10000000000E+02 0. -1.
</event>
<event>
 5    1  0.1533416E-008  0.3852206E+03  0.7957747E-01  0.3428737E+00
         13   -1    0    0    0    0  0.00000000000E+00  0.00000000000E+00  0.14999999963E+04  0.15000000000E+04  0.10566000000E+00 0. -1.
        994   -1    0    0    0    0 -0.00000000000E+00 -0.00000000000E+00  0.11368683772E-12  0.17120000000E+03  0.17120000000E+03 0.  0.
         13    1    1    2    0    0 -0.37676166747E+01 -0.16489959514E+02  0.98154131308E+02  0.99600995763E+02  0.10566000000E+00 0. -1.
        994    1    1    2    0    0 -0.58094282608E+00  0.62142046817E+01  0.16486885172E+01  0.17132166240E+03  0.17120000000E+03 0.  0.
        998    1    1    2    0    0  0.43485595008E+01  0.10275754832E+02  0.14001971765E+04  0.14002773418E+04  0.10000000000E+02 0. -1.
</event>
<event>
 5    1  0.1533416E-008  0.3706935E+03  0.7957747E-01  0.3492710E+00
         13   -1    0    0    0    0  0.00000000000E+00  0.00000000000E+00  0.14999999963E+04  0.15000000000E+04  0.10566000000E+00 0.  1.
        994   -1    0    0    0    0 -0.00000000000E+00 -0.00000000000E+00  0.11368683772E-12  0.17120000000E+03  0.17120000000E+03 0.  0.
         13    1    1    2    0    0 -0.54245704219E+02  0.41820190545E+02  0.32382379117E+03  0.33098849475E+03  0.10566000000E+00 0.  1.
        994    1    1    2    0    0 -0.42298017865E+02 -0.11332611663E+02  0.18056343595E+02  0.17763170310E+03  0.17120000000E+03 0.  0.
        998    1    1    2    0    0  0.96543722084E+02 -0.30487578883E+02  0.11581198615E+04  0.11625798022E+04  0.10000000000E+02 0.  1.
</event>
<event>
 5    1  0.1533416E-008  0.3773897E+03  0.7957747E-01  0.3462604E+00
         13   -1    0    0    0    0  0.00000000000E+00  0.00000000000E+00  0.14999999963E+04  0.15000000000E+04  0.10566000000E+00 0. -1.
        994   -1    0    0    0    0 -0.00000000000E+00 -0.00000000000E+00  0.11368683772E-12  0.17120000000E+03  0.17120000000E+03 0.  0.
         13    1    1    2    0    0 -0.11019390376E+02 -0.21869132133E+01  0.90858540054E+01  0.14448995145E+02  0.10566000000E+00 0. -1.
        994    1    1    2    0    0  0.81734275366E+01  0.54869790842E+01  0.57835013779E+01  0.17158030407E+03  0.17120000000E+03 0.  0.
        998    1    1    2    0    0  0.28459628390E+01 -0.33000658710E+01  0.14851306409E+04  0.14851707008E+04  0.10000000000E+02 0. -1.
</event>
<event>
 5    1  0.1533416E-008  0.3834069E+03  0.7957747E-01  0.3436457E+00
         13   -1    0    0    0    0  0.00000000000E+00  0.00000000000E+00  0.14999999963E+04  0.15000000000E+04  0.10566000000E+00 0.  1.
        994   -1    0    0    0    0 -0.00000000000E+00 -0.00000000000E+00  0.11368683772E-12  0.17120000000E+03  0.17120000000E+03 0.  0.
         13    1    1    2    0    0  0.20042684589E+02 -0.49760153402E+01  0.88927491825E+02  0.91293920392E+02  0.10566000000E+00 0.  1.
        994    1    1    2    0    0 -0.96075402963E+01  0.34888677816E+01  0.27685775128E+01  0.17152720499E+03  0.17120000000E+03 0.  0.
        998    1    1    2    0    0 -0.10435144293E+02  0.14871475586E+01  0.14083039269E+04  0.14083788746E+04  0.10000000000E+02 0.  1.
</event>
<event>
 5    1  0.1533416E-008  0.3853222E+03  0.7957747E-01  0.3428307E+00
         13   -1    0    0    0    0  0.00000000000E+00  0.00000000000E+00  0.14999999963E+04  0.15000000000E+04  0.10566000000E+00 0. -1.
        994   -1    0    0    0    0 -0.00000000000E+00 -0.00000000000E+00  0.11368683772E-12  0.17120000000E+03  0.17120000000E+03 0.  0.
         13    1    1    2    0    0  0.15542937293E+02 -0.50031937978E+00  0.89361372761E+02  0.90704461439E+02  0.10566000000E+00 0. -1.
        994    1    1    2    0    0 -0.25407589886E+00 -0.52292412332E+01  0.15602950291E+01  0.17128713915E+03  0.17120000000E+03 0.  0.
        998    1    1    2    0    0 -0.15288861394E+02  0.57295606129E+01  0.14090783285E+04  0.14092083994E+04  0.10000000000E+02 0. -1.
</event>
<event>
 5    1  0.1533416E-008  0.3778355E+03  0.7957747E-01  0.3460638E+00
         13   -1    0    0    0    0  0.00000000000E+00  0.00000000000E+00  0.14999999963E+04  0.15000000000E+04  0.10566000000E+00 0.  1.
        994   -1    0    0    0    0 -0.00000000000E+00 -0.00000000000E+00  0.11368683772E-12  0.17120000000E+03  0.17120000000E+03 0.  0.
         13    1    1    2    0    0  0.24124017316E+02 -0.36393669580E+01  0.59938785698E+02  0.64713850127E+02  0.10566000000E+00 0.  1.
        994    1    1    2    0    0  0.74395458898E+01 -0.28783673550E+01  0.54440685458E+01  0.17147218353E+03  0.17120000000E+03 0.  0.
        998    1    1    2    0    0 -0.31563563206E+02  0.65177343130E+01  0.14346171420E+04  0.14350139663E+04  0.10000000000E+02 0.  1.
</event>
<event>
 5    1  0.1533416E-008  0.3844308E+03  0.7957747E-01  0.3432090E+00
         13   -1    0    0    0    0  0.00000000000E+00  0.00000000000E+00  0.14999999963E+04  0.15000000000E+04  0.10566000000E+00 0. -1.
        994   -1    0    0    0    0 -0.00000000000E+00 -0.00000000000E+00  0.11368683772E-12  0.17120000000E+03  0.17120000000E+03 0.  0.
         13    1    1    2    0    0 -0.20552912675E+01  0.18921558131E+02  0.89735092389E+02  0.91731388055E+02  0.10566000000E+00 0. -1.
        994    1    1    2    0    0  0.55697574149E+01 -0.19116322866E+02  0.32202957533E+01  0.17238406627E+03  0.17120000000E+03 0.  0.
        998    1    1    2    0    0 -0.35144661474E+01  0.19476473541E+00  0.14070446081E+04  0.14070845457E+04  0.10000000000E+02 0. -1.
</event>
<event>
 5    1  0.1533416E-008  0.3853069E+03  0.7957747E-01  0.3428372E+00
         13   -1    0    0    0    0  0.00000000000E+00  0.00000000000E+00  0.14999999963E+04  0.15000000000E+04  0.10566000000E+00 0.  1.
        994   -1    0    0    0    0 -0.00000000000E+00 -0.00000000000E+00  0.11368683772E-12  0.17120000000E+03  0.17120000000E+03 0.  0.
         13    1    1    2    0    0 -0.90851947730E+01 -0.58259002552E+01  0.39313694494E+02  0.40768365391E+02  0.10566000000E+00 0.  1.
        994    1    1    2    0    0  0.10059707022E+02 -0.11558053315E+01  0.18147665602E+01  0.17150879560E+03  0.17120000000E+03 0.  0.
        998    1    1    2    0    0 -0.97451224901E+00  0.69817055867E+01  0.14588715352E+04  0.14589228390E+04  0.10000000000E+02 0.  1.
</event>
<event>
 5    1  0.1533416E-008  0.3835513E+03  0.7957747E-01  0.3435839E+00
         13   -1    0    0    0    0  0.00000000000E+00  0.00000000000E+00  0.14999999963E+04  0.15000000000E+04  0.10566000000E+00 0. -1.
        994   -1    0    0    0    0 -0.00000000000E+00 -0.00000000000E+00  0.11368683772E-12  0.17120000000E+03  0.17120000000E+03 0.  0.
         13    1    1    2    0    0 -0.14727063019E+02  0.20951837666E+02  0.15097644958E+03  0.15313316224E+03  0.10566000000E+00 0. -1.
        994    1    1    2    0    0 -0.91864624481E+00 -0.73442700437E+01  0.25321123527E+01  0.17137862704E+03  0.17120000000E+03 0.  0.
        998    1    1    2    0    0  0.15645709264E+02 -0.13607567623E+02  0.13464914343E+04  0.13466882107E+04  0.10000000000E+02 0. -1.
</event>
<event>
 5    1  0.1533416E-008  0.3785894E+03  0.7957747E-01  0.3457324E+00
         13   -1    0    0    0    0  0.00000000000E+00  0.00000000000E+00  0.14999999963E+04  0.15000000000E+04  0.10566000000E+00 0.  1.
        994   -1    0    0    0    0 -0.00000000000E+00 -0.00000000000E+00  0.11368683772E-12  0.17120000000E+03  0.17120000000E+03 0.  0.
         13    1    1    2    0    0  0.19283553903E+02 -0.20664797125E+02  0.78451050424E+02  0.83387455699E+02  0.10566000000E+00 0.  1.
        994    1    1    2    0    0 -0.20109742875E+02  0.14175959302E+02  0.68827118085E+01  0.17309584427E+03  0.17120000000E+03 0.  0.
        998    1    1    2    0    0  0.82618897261E+00  0.64888378228E+01  0.14146662340E+04  0.14147167000E+04  0.10000000000E+02 0.  1.
</event>
<event>
 5    1  0.1533416E-008  0.3788488E+03  0.7957747E-01  0.3456186E+00
         13   -1    0    0    0    0  0.00000000000E+00  0.00000000000E+00  0.14999999963E+04  0.15000000000E+04  0.10566000000E+00 0. -1.
        994   -1    0    0    0    0 -0.00000000000E+00 -0.00000000000E+00  0.11368683772E-12  0.17120000000E+03  0.17120000000E+03 0.  0.
         13    1    1    2    0    0 -0.30997709342E+02  0.22365567051E+02  0.13174699630E+03  0.13718002323E+03  0.10566000000E+00 0. -1.
        994    1    1    2    0    0  0.45161378211E+02 -0.23366764754E+02  0.13441117867E+02  0.17909678787E+03  0.17120000000E+03 0.  0.
        998    1    1    2    0    0 -0.14163668868E+02  0.10011977029E+01  0.13548118821E+04  0.13549231889E+04  0.10000000000E+02 0. -1.
</event>
<event>
 5    1  0.1533416E-008  0.3844309E+03  0.7957747E-01  0.3432089E+00
         13   -1    0    0    0    0  0.00000000000E+00  0.00000000000E+00  0.14999999963E+04  0.15000000000E+04  0.10566000000E+00 0. -1.
        994   -1    0    0    0    0 -0.00000000000E+00 -0.00000000000E+00  0.11368683772E-12  0.17120000000E+03  0.17120000000E+03 0.  0.
         13    1    1    2    0    0  0.17152286817E+02 -0.11664788627E+02  0.12072629304E+03  0.12249537637E+03  0.10566000000E+00 0. -1.
        994    1    1    2    0    0 -0.64361618021E+01 -0.23184170169E+01  0.20671512180E+01  0.17134909498E+03  0.17120000000E+03 0.  0.
        998    1    1    2    0    0 -0.10716125015E+02  0.13983205644E+02  0.13772065520E+04  0.13773555286E+04  0.10000000000E+02 0. -1.
</event>
<event>
 5    1  0.1533416E-008  0.3807216E+03  0.7957747E-01  0.3448023E+00
         13   -1    0    0    0    0  0.00000000000E+00  0.00000000000E+00  0.14999999963E+04  0.15000000000E+04  0.10566000000E+00 0. -1.
        994   -1    0    0    0    0 -0.00000000000E+00 -0.00000000000E+00  0.11368683772E-12  0.17120000000E+03  0.17120000000E+03 0.  0.
         13    1    1    2    0    0 -0.42366829429E+01 -0.12336969907E+02  0.21648699036E+02  0.25275039917E+02  0.10566000000E+00 0. -1.
        994    1    1    2    0    0  0.95611894371E+01 -0.45022405931E+01  0.41419138768E+01  0.17157587815E+03  0.17120000000E+03 0.  0.
        998    1    1    2    0    0 -0.53245064942E+01  0.16839210500E+02  0.14742093834E+04  0.14743490819E+04  0.10000000000E+02 0. -1.
</event>
<event>
 5    1  0.1533416E-008  0.3810756E+03  0.7957747E-01  0.3446489E+00
         13   -1    0    0    0    0  0.00000000000E+00  0.00000000000E+00  0.14999999963E+04  0.15000000000E+04  0.10566000000E+00 0.  1.
        994   -1    0    0    0    0 -0.00000000000E+00 -0.00000000000E+00  0.11368683772E-12  0.17120000000E+03  0.17120000000E+03 0.  0.
         13    1    1    2    0    0  0.23661182586E+02  0.13147016266E+02  0.97905708427E+02  0.10157871088E+03  0.10566000000E+00 0.  1.
        994    1    1    2    0    0 -0.31282937008E+02  0.10077993952E+02  0.71977337628E+01  0.17447474167E+03  0.17120000000E+03 0.  0.
        998    1    1    2    0    0  0.76217544212E+01 -0.23225010218E+02  0.13948965541E+04  0.13951465474E+04  0.10000000000E+02 0.  1.
</event>
<event>
 5    1  0.1533416E-008  0.3843360E+03  0.7957747E-01  0.3432493E+00
         13   -1    0    0    0    0  0.00000000000E+00  0.00000000000E+00  0.14999999963E+04  0.15000000000E+04  0.10566000000E+00 0.  1.
        994   -1    0    0    0    0 -0.00000000000E+00 -0.00000000000E+00  0.11368683772E-12  0.17120000000E+03  0.17120000000E+03 0.  0.
         13    1    1    2    0    0  0.99119290568E+01  0.16941139358E+02  0.10503253163E+03  0.10685079506E+03  0.10566000000E+00 0.  1.
        994    1    1    2    0    0 -0.19023495020E+01 -0.24812248913E+01  0.19923645948E+01  0.17124013819E+03  0.17120000000E+03 0.  0.
        998    1    1    2    0    0 -0.80095795548E+01 -0.14459914466E+02  0.13929751000E+04  0.13931090667E+04  0.10000000000E+02 0.  1.
</event>
<event>
 5    1  0.1533416E-008  0.3849075E+03  0.7957747E-01  0.3430065E+00
         13   -1    0    0    0    0  0.00000000000E+00  0.00000000000E+00  0.14999999963E+04  0.15000000000E+04  0.10566000000E+00 0.  1.
        994   -1    0    0    0    0 -0.00000000000E+00 -0.00000000000E+00  0.11368683772E-12  0.17120000000E+03  0.17120000000E+03 0.  0.
         13    1    1    2    0    0 -0.23748385758E+01  0.98712891731E+01  0.30841302676E+02  0.32469667738E+02  0.10566000000E+00 0.  1.
        994    1    1    2    0    0 -0.16235721036E+00 -0.44632874685E+01  0.17416964923E+01  0.17126710368E+03  0.17120000000E+03 0.  0.
        998    1    1    2    0    0  0.25371957861E+01 -0.54080017047E+01  0.14674169971E+04  0.14674632286E+04  0.10000000000E+02 0.  1.
</event>
<event>
 5    1  0.1533416E-008  0.3824438E+03  0.7957747E-01  0.3440586E+00
         13   -1    0    0    0    0  0.00000000000E+00  0.00000000000E+00  0.14999999963E+04  0.15000000000E+04  0.10566000000E+00 0.  1.
        994   -1    0    0    0    0 -0.00000000000E+00 -0.00000000000E+00  0.11368683772E-12  0.17120000000E+03  0.17120000000E+03 0.  0.
         13    1    1    2    0    0 -0.37501259884E+01 -0.27138886486E+02  0.14243249293E+03  0.14504347214E+03  0.10566000000E+00 0.  1.
        994    1    1    2    0    0  0.99654187988E+01  0.10153799496E+01  0.32374238634E+01  0.17152335550E+03  0.17120000000E+03 0.  0.
        998    1    1    2    0    0 -0.62152928105E+01  0.26123506536E+02  0.13543300795E+04  0.13546331724E+04  0.10000000000E+02 0.  1.
</event>
<event>
 5    1  0.1533416E-008  0.3772694E+03  0.7957747E-01  0.3463135E+00
         13   -1    0    0    0    0  0.00000000000E+00  0.00000000000E+00  0.14999999963E+04  0.15000000000E+04  0.10566000000E+00 0.  1.
        994   -1    0    0    0    0 -0.00000000000E+00 -0.00000000000E+00  0.11368683772E-12  0.17120000000E+03  0.17120000000E+03 0.  0.
         13    1    1    2    0    0 -0.10745751491E+03  0.40357136000E+02  0.64670010671E+03  0.65680808088E+03  0.10566000000E+00 0.  1.
        994    1    1    2    0    0  0.12081083997E+03 -0.13984005127E+02  0.57160194630E+02  0.21764084934E+03  0.17120000000E+03 0.  0.
        998    1    1    2    0    0 -0.13353325058E+02 -0.26373130873E+02  0.79613969494E+03  0.79675106977E+03  0.10000000000E+02 0.  1.
</event>
<event>
 5    1  0.1533416E-008  0.3842475E+03  0.7957747E-01  0.3432870E+00
         13   -1    0    0    0    0  0.00000000000E+00  0.00000000000E+00  0.14999999963E+04  0.15000000000E+04  0.10566000000E+00 0.  1.
        994   -1    0    0    0    0 -0.00000000000E+00 -0.00000000000E+00  0.11368683772E-12  0.17120000000E+03  0.17120000000E+03 0.  0.
         13    1    1    2    0    0  0.15544527178E+02  0.12022249958E+02  0.87051301377E+02  0.89241845872E+02  0.10566000000E+00 0.  1.
        994    1    1    2    0    0 -0.23877887859E+02 -0.14053616448E+02  0.45390479515E+01  0.17348688890E+03  0.17120000000E+03 0.  0.
        998    1    1    2    0    0  0.83333606814E+01  0.20313664900E+01  0.14084096470E+04  0.14084712652E+04  0.10000000000E+02 0.  1.
</event>
<event>
 5    1  0.1533416E-008  0.3838324E+03  0.7957747E-01  0.3434639E+00
         13   -1    0    0    0    0  0.00000000000E+00  0.00000000000E+00  0.14999999963E+04  0.15000000000E+04  0.10566000000E+00 0. -1.
        994   -1    0    0    0    0 -0.00000000000E+00 -0.00000000000E+00  0.11368683772E-12  0.17120000000E+03  0.17120000000E+03 0.  0.
         13    1    1    2    0    0 -0.51910245427E+01  0.90048442775E+01  0.23732701690E+02  0.25909192380E+02  0.10566000000E+00 0. -1.
        994    1    1    2    0    0  0.12613754208E+02 -0.10051542693E+01  0.27396829444E+01  0.17168885518E+03  0.17120000000E+03 0.  0.
        998    1    1    2    0    0 -0.74227296656E+01 -0.79996900082E+01  0.14735276116E+04  0.14736019524E+04  0.10000000000E+02 0. -1.
</event>
<event>
 5    1  0.1533416E-008  0.3825581E+03  0.7957747E-01  0.3440095E+00
         13   -1    0    0    0    0  0.00000000000E+00  0.00000000000E+00  0.14999999963E+04  0.15000000000E+04  0.10566000000E+00 0. -1.
        994   -1    0    0    0    0 -0.00000000000E+00 -0.00000000000E+00  0.11368683772E-12  0.17120000000E+03  0.17120000000E+03 0.  0.
         13    1    1    2    0    0  0.10981283207E+00 -0.25089846612E+02  0.11747666216E+03  0.12012614111E+03  0.10566000000E+00 0. -1.
        994    1    1    2    0    0 -0.61667797993E+01  0.50099835435E+01  0.30566778152E+01  0.17141152933E+03  0.17120000000E+03 0.  0.
        998    1    1    2    0    0  0.60569669672E+01  0.20079863069E+02  0.13794666563E+04  0.13796623296E+04  0.10000000000E+02 0. -1.
</event>
<event>
 5    1  0.1533416E-008  0.3797797E+03  0.7957747E-01  0.3452118E+00
         13   -1    0    0    0    0  0.00000000000E+00  0.00000000000E+00  0.14999999963E+04  0.15000000000E+04  0.10566000000E+00 0.  1.
        994   -1    0    0    0    0 -0.00000000000E+00 -0.00000000000E+00  0.11368683772E-12  0.17120000000E+03  0.17120000000E+03 0.  0.
         13    1    1    2    0    0  0.11946999562E+02  0.11183006292E+02  0.29585674200E+02  0.33809964658E+02  0.10566000000E+00 0.  1.
        994    1    1    2    0    0 -0.10728959289E+02 -0.91989490039E+01  0.49128272844E+01  0.17185257374E+03  0.17120000000E+03 0.  0.
        998    1    1    2    0    0 -0.12180402727E+01 -0.19840572886E+01  0.14655014948E+04  0.14655374616E+04  0.10000000000E+02 0.  1.
</event>
<event>
 5    1  0.1533416E-008  0.3742911E+03  0.7957747E-01  0.3476399E+00
         13   -1    0    0    0    0  0.00000000000E+00  0.00000000000E+00  0.14999999963E+04  0.15000000000E+04  0.10566000000E+00 0. -1.
        994   -1    0    0    0    0 -0.00000000000E+00 -0.00000000000E+00  0.11368683772E-12  0.17120000000E+03  0.17120000000E+03 0.  0.
         13    1    1    2    0    0 -0.22459644098E+02 -0.15512326802E+02  0.48461539187E+02  0.55620138800E+02  0.10566000000E+00 0. -1.
        994    1    1    2    0    0  0.28104592885E+02  0.10486621465E+02  0.10115360379E+02  0.17410226273E+03  0.17120000000E+03 0.  0.
        998    1    1    2    0    0 -0.56449487873E+01  0.50257053372E+01  0.14414230967E+04  0.14414775985E+04  0.10000000000E+02 0. -1.
</event>
<event>
 5    1  0.1533416E-008  0.3829707E+03  0.7957747E-01  0.3438325E+00
         13   -1    0    0    0    0  0.00000000000E+00  0.00000000000E+00  0.14999999963E+04  0.15000000000E+04  0.10566000000E+00 0.  1.
        994   -1    0    0    0    0 -0.00000000000E+00 -0.00000000000E+00  0.11368683772E-12  0.17120000000E+03  0.17120000000E+03 0.  0.
         13    1    1    2    0    0 -0.14190645893E+01  0.10592218992E+02  0.20554629220E+02  0.23167062694E+02  0.10566000000E+00 0.  1.
        994    1    1    2    0    0 -0.58273628468E+01 -0.97378094002E+01  0.30674508872E+01  0.17160312452E+03  0.17120000000E+03 0.  0.
        998    1    1    2    0    0  0.72464274361E+01 -0.85440959202E+00  0.14763779162E+04  0.14764298128E+04  0.10000000000E+02 0.  1.
</event>
<event>
 5    1  0.1533416E-008  0.3850757E+03  0.7957747E-01  0.3429351E+00
         13   -1    0    0    0    0  0.00000000000E+00  0.00000000000E+00  0.14999999963E+04  0.15000000000E+04  0.10566000000E+00 0. -1.
        994   -1    0    0    0    0 -0.00000000000E+00 -0.00000000000E+00  0.11368683772E-12  0.17120000000E+03  0.17120000000E+03 0.  0.
         13    1    1    2    0    0 -0.12019686259E+01 -0.14993266996E+02  0.66117123152E+02  0.67806547779E+02  0.10566000000E+00 0. -1.
        994    1    1    2    0    0 -0.44528006393E+01  0.21764631425E+02  0.32168948107E+01  0.17266532665E+03  0.17120000000E+03 0.  0.
        998    1    1    2    0    0  0.56547692652E+01 -0.67713644294E+01  0.14306659783E+04  0.14307281256E+04  0.10000000000E+02 0. -1.
</event>
<event>
 5    1  0.1533416E-008  0.3857263E+03  0.7957747E-01  0.3426598E+00
         13   -1    0    0    0    0  0.00000000000E+00  0.00000000000E+00  0.14999999963E+04  0.15000000000E+04  0.10566000000E+00 0.  1.
        994   -1    0    0    0    0 -0.00000000000E+00 -0.00000000000E+00  0.11368683772E-12  0.17120000000E+03  0.17120000000E+03 0.  0.
         13    1    1    2    0    0 -0.41665317387E+01  0.11951972661E+02  0.67347581057E+02  0.68526764665E+02  0.10566000000E+00 0.  1.
        994    1    1    2    0    0  0.79810756697E+01  0.20978742101E+01  0.14934375154E+01  0.17140527705E+03  0.17120000000E+03 0.  0.
        998    1    1    2    0    0 -0.38145439309E+01 -0.14049846871E+02  0.14311589777E+04  0.14312679583E+04  0.10000000000E+02 0.  1.
</event>
<event>
 5    1  0.1533416E-008  0.3741110E+03  0.7957747E-01  0.3477208E+00
         13   -1    0    0    0    0  0.00000000000E+00  0.00000000000E+00  0.14999999963E+04  0.15000000000E+04  0.10566000000E+00 0. -1.
        994   -1    0    0    0    0 -0.00000000000E+00 -0.00000000000E+00  0.11368683772E-12  0.17120000000E+03  0.17120000000E+03 0.  0.
         13    1    1    2    0    0 -0.56964085112E+02  0.10223345756E+02  0.20267337921E+03  0.21077460377E+03  0.10566000000E+00 0. -1.
        994    1    1    2    0    0  0.56671433335E+02 -0.83201542605E+01  0.18405474595E+02  0.18146370937E+03  0.17120000000E+03 0.  0.
        998    1    1    2    0    0  0.29265177688E+00 -0.19031914956E+01  0.12789211425E+04  0.12789616869E+04  0.10000000000E+02 0.  0.
</event>
<event>
 5    1  0.1533416E-008  0.3831967E+03  0.7957747E-01  0.3437356E+00
         13   -1    0    0    0    0  0.00000000000E+00  0.00000000000E+00  0.14999999963E+04  0.15000000000E+04  0.10566000000E+00 0.  1.
        994   -1    0    0    0    0 -0.00000000000E+00 -0.00000000000E+00  0.11368683772E-12  0.17120000000E+03  0.17120000000E+03 0.  0.
         13    1    1    2    0    0  0.17801555053E+02 -0.55199493256E+01  0.65167982174E+02  0.67780839974E+02  0.10566000000E+00 0.  1.
        994    1    1    2    0    0 -0.21866528827E+02 -0.19096765404E+01  0.41234817632E+01  0.17265061555E+03  0.17120000000E+03 0.  0.
        998    1    1    2    0    0  0.40649737737E+01  0.74296258659E+01  0.14307085323E+04  0.14307685445E+04  0.10000000000E+02 0.  1.
</event>
<event>
 5    1  0.1533416E-008  0.3861758E+03  0.7957747E-01  0.3424701E+00
         13   -1    0    0    0    0  0.00000000000E+00  0.00000000000E+00  0.14999999963E+04  0.15000000000E+04  0.10566000000E+00 0. -1.
        994   -1    0    0    0    0 -0.00000000000E+00 -0.00000000000E+00  0.11368683772E-12  0.17120000000E+03  0.17120000000E+03 0.  0.
         13    1    1    2    0    0 -0.10777962216E+02  0.54556696075E+00  0.55848200654E+02  0.56881409908E+02  0.10566000000E+00 0. -1.
        994    1    1    2    0    0  0.84391973794E+01 -0.51048634807E+01  0.13662780853E+01  0.17148931862E+03  0.17120000000E+03 0.  0.
        998    1    1    2    0    0  0.23387648366E+01  0.45592965199E+01  0.14427855175E+04  0.14428292715E+04  0.10000000000E+02 0. -1.
</event>
<event>
 5    1  0.1533416E-008  0.3717515E+03  0.7957747E-01  0.3487880E+00
         13   -1    0    0    0    0  0.00000000000E+00  0.00000000000E+00  0.14999999963E+04  0.15000000000E+04  0.10566000000E+00 0. -1.
        994   -1    0    0    0    0 -0.00000000000E+00 -0.00000000000E+00  0.11368683772E-12  0.17120000000E+03  0.17120000000E+03 0.  0.
         13    1    1    2    0    0  0.13538230605E+02  0.91102554646E+01  0.58281185070E+01  0.17327970796E+02  0.10566000000E+00 0. -1.
        994    1    1    2    0    0 -0.11964779469E+02 -0.84626987986E+01  0.12623787605E+02  0.17228921392E+03  0.17120000000E+03 0.  0.
        998    1    1    2    0    0 -0.15734511352E+01 -0.64755666604E+00  0.14815480902E+04  0.14815828153E+04  0.10000000000E+02 0. -1.
</event>
<event>
 5    1  0.1533416E-008  0.3745353E+03  0.7957747E-01  0.3475304E+00
         13   -1    0    0    0    0  0.00000000000E+00  0.00000000000E+00  0.14999999963E+04  0.15000000000E+04  0.10566000000E+00 0. -1.
        994   -1    0    0    0    0 -0.00000000000E+00 -0.00000000000E+00  0.11368683772E-12  0.17120000000E+03  0.17120000000E+03 0.  0.
         13    1    1    2    0    0 -0.43153975652E+01 -0.32231185556E+02  0.69424980960E+02  0.76663623211E+02  0.10566000000E+00 0. -1.
        994    1    1    2    0    0  0.19932623299E+01  0.38133833811E+02  0.11898092695E+02  0.17581003096E+03  0.17120000000E+03 0.  0.
        998    1    1    2    0    0  0.23221352353E+01 -0.59026482542E+01  0.14186769226E+04  0.14187263458E+04  0.10000000000E+02 0. -1.
</event>
<event>
 5    1  0.1533416E-008  0.3795980E+03  0.7957747E-01  0.3452911E+00
         13   -1    0    0    0    0  0.00000000000E+00  0.00000000000E+00  0.14999999963E+04  0.15000000000E+04  0.10566000000E+00 0. -1.
        994   -1    0    0    0    0 -0.00000000000E+00 -0.00000000000E+00  0.11368683772E-12  0.17120000000E+03  0.17120000000E+03 0.  0.
         13    1    1    2    0    0  0.13761978067E+02 -0.26531276242E+02  0.90998082038E+02  0.95780805791E+02  0.10566000000E+00 0. -1.
        994    1    1    2    0    0 -0.23630769662E+02  0.34099981563E+02  0.10119386646E+02  0.17644564036E+03  0.17120000000E+03 0.  0.
        998    1    1    2    0    0  0.98687915946E+01 -0.75687053209E+01  0.13988825276E+04  0.13989735538E+04  0.10000000000E+02 0. -1.
</event>
<event>
 5    1  0.1533416E-008  0.3786486E+03  0.7957747E-01  0.3457064E+00
         13   -1    0    0    0    0  0.00000000000E+00  0.00000000000E+00  0.14999999963E+04  0.15000000000E+04  0.10566000000E+00 0. -1.
        994   -1    0    0    0    0 -0.00000000000E+00 -0.00000000000E+00  0.11368683772E-12  0.17120000000E+03  0.17120000000E+03 0.  0.
         13    1    1    2    0    0  0.26997232887E+02  0.12843394874E+02  0.83833933673E+02  0.89005297452E+02  0.10566000000E+00 0. -1.
        994    1    1    2    0    0 -0.33516209452E+02 -0.16056753909E+02  0.94686945743E+01  0.17544301587E+03  0.17120000000E+03 0.  0.
        998    1    1    2    0    0  0.65189765653E+01  0.32133590346E+01  0.14066973680E+04  0.14067516867E+04  0.10000000000E+02 0. -1.
</event>
<event>
 5    1  0.1533416E-008  0.3845855E+03  0.7957747E-01  0.3431432E+00
         13   -1    0    0    0    0  0.00000000000E+00  0.00000000000E+00  0.14999999963E+04  0.15000000000E+04  0.10566000000E+00 0. -1.
        994   -1    0    0    0    0 -0.00000000000E+00 -0.00000000000E+00  0.11368683772E-12  0.17120000000E+03  0.17120000000E+03 0.  0.
         13    1    1    2    0    0 -0.16508990761E+02 -0.40477941794E+01  0.78921230515E+02  0.80731054767E+02  0.10566000000E+00 0. -1.
        994    1    1    2    0    0  0.11190927574E+02 -0.26605902474E+01  0.22719270409E+01  0.17160104094E+03  0.17120000000E+03 0.  0.
        998    1    1    2    0    0  0.53180631866E+01  0.67083844268E+01  0.14188068387E+04  0.14188679043E+04  0.10000000000E+02 0. -1.
</event>
<event>
 5    1  0.1533416E-008  0.3725165E+03  0.7957747E-01  0.3484405E+00
         13   -1    0    0    0    0  0.00000000000E+00  0.00000000000E+00  0.14999999963E+04  0.15000000000E+04  0.10566000000E+00 0.  1.
        994   -1    0    0    0    0 -0.00000000000E+00 -0.00000000000E+00  0.11368683772E-12  0.17120000000E+03  0.17120000000E+03 0.  0.
         13    1    1    2    0    0  0.23103721217E+02  0.19902637002E+02  0.35214534489E+02  0.46582952858E+02  0.10566000000E+00 0.  1.
        994    1    1    2    0    0  0.26507747800E+02 -0.21151715868E+02  0.16342839200E+02  0.17529000020E+03  0.17120000000E+03 0.  0.
        998    1    1    2    0    0 -0.49611469017E+02  0.12490788662E+01  0.14484426226E+04  0.14493270469E+04  0.10000000000E+02 0.  1.
</event>
<event>
 5    1  0.1533416E-008  0.3828278E+03  0.7957747E-01  0.3438938E+00
         13   -1    0    0    0    0  0.00000000000E+00  0.00000000000E+00  0.14999999963E+04  0.15000000000E+04  0.10566000000E+00 0.  1.
        994   -1    0    0    0    0 -0.00000000000E+00 -0.00000000000E+00  0.11368683772E-12  0.17120000000E+03  0.17120000000E+03 0.  0.
         13    1    1    2    0    0  0.53312801878E+01  0.11242579330E+02  0.27393321727E+02  0.30086930347E+02  0.10566000000E+00 0.  1.
        994    1    1    2    0    0 -0.29365810754E+01 -0.10295315751E+02  0.30921735167E+01  0.17156228773E+03  0.17120000000E+03 0.  0.
        998    1    1    2    0    0 -0.23946991124E+01 -0.94726357866E+00  0.14695145010E+04  0.14695507819E+04  0.10000000000E+02 0.  1.
</event>
<event>
 5    1  0.1533416E-008  0.3849738E+03  0.7957747E-01  0.3429783E+00
         13   -1    0    0    0    0  0.00000000000E+00  0.00000000000E+00  0.14999999963E+04  0.15000000000E+04  0.10566000000E+00 0. -1.
        994   -1    0    0    0    0 -0.00000000000E+00 -0.00000000000E+00  0.11368683772E-12  0.17120000000E+03  0.17120000000E+03 0.  0.
         13    1    1    2    0    0 -0.31807435957E+01 -0.18226610773E+02  0.95719489199E+02  0.97491323956E+02  0.10566000000E+00 0. -1.
        994    1    1    2    0    0 -0.18273302618E+01  0.23808790128E+02  0.35207265540E+01  0.17289312635E+03  0.17120000000E+03 0.  0.
        998    1    1    2    0    0  0.50080738575E+01 -0.55821793550E+01  0.14007597805E+04  0.14008155497E+04  0.10000000000E+02 0. -1.
</event>
<event>
 5    1  0.1533416E-008  0.3765007E+03  0.7957747E-01  0.3466538E+00
         13   -1    0    0    0    0  0.00000000000E+00  0.00000000000E+00  0.14999999963E+04  0.15000000000E+04  0.10566000000E+00 0.  1.
        994   -1    0    0    0    0 -0.00000000000E+00 -0.00000000000E+00  0.11368683772E-12  0.17120000000E+03  0.17120000000E+03 0.  0.
         13    1    1    2    0    0  0.90231359827E+02 -0.27137127314E+02  0.53962222806E+03  0.54778671228E+03  0.10566000000E+00 0.  1.
        994    1    1    2    0    0 -0.80569789493E+02  0.22904932945E+02  0.30020477291E+02  0.19294246808E+03  0.17120000000E+03 0.  0.
        998    1    1    2    0    0 -0.96615703343E+01  0.42321943688E+01  0.93035729093E+03  0.93047081964E+03  0.10000000000E+02 0.  1.
</event>
<event>
 5    1  0.1533416E-008  0.3851082E+03  0.7957747E-01  0.3429214E+00
         13   -1    0    0    0    0  0.00000000000E+00  0.00000000000E+00  0.14999999963E+04  0.15000000000E+04  0.10566000000E+00 0.  1.
        994   -1    0    0    0    0 -0.00000000000E+00 -0.00000000000E+00  0.11368683772E-12  0.17120000000E+03  0.17120000000E+03 0.  0.
         13    1    1    2    0    0 -0.43568147260E+01 -0.98342963515E+01  0.37236095093E+02  0.38758652726E+02  0.10566000000E+00 0.  1.
        994    1    1    2    0    0 -0.11833829997E+01  0.45795847380E+01  0.16500031421E+01  0.17127327726E+03  0.17120000000E+03 0.  0.
        998    1    1    2    0    0  0.55401977257E+01  0.52547116134E+01  0.14611138980E+04  0.14611680700E+04  0.10000000000E+02 0.  1.
</event>
<event>
 5    1  0.1533416E-008  0.3856654E+03  0.7957747E-01  0.3426855E+00
         13   -1    0    0    0    0  0.00000000000E+00  0.00000000000E+00  0.14999999963E+04  0.15000000000E+04  0.10566000000E+00 0. -1.
        994   -1    0    0    0    0 -0.00000000000E+00 -0.00000000000E+00  0.11368683772E-12  0.17120000000E+03  0.17120000000E+03 0.  0.
         13    1    1    2    0    0  0.27959066435E+01  0.13950266238E+02  0.83377460575E+02  0.84582735343E+02  0.10566000000E+00 0. -1.
        994    1    1    2    0    0  0.17497026448E+01 -0.20765522257E+01  0.13243587594E+01  0.17122665521E+03  0.17120000000E+03 0.  0.
        998    1    1    2    0    0 -0.45456092883E+01 -0.11873714013E+02  0.14152981769E+04  0.14153906094E+04  0.10000000000E+02 0. -1.
</event>
<event>
 5    1  0.1533416E-008  0.3803872E+03  0.7957747E-01  0.3449474E+00
         13   -1    0    0    0    0  0.00000000000E+00  0.00000000000E+00  0.14999999963E+04  0.15000000000E+04  0.10566000000E+00 0.  1.
        994   -1    0    0    0    0 -0.00000000000E+00 -0.00000000000E+00  0.11368683772E-12  0.17120000000E+03  0.17120000000E+03 0.  0.
         13    1    1    2    0    0 -0.17456547410E+02 -0.18558573369E+02  0.79056771300E+02  0.83061037469E+02  0.10566000000E+00 0.  1.
        994    1    1    2    0    0  0.25934713894E+02  0.48840609633E+01  0.62665299372E+01  0.17333543444E+03  0.17120000000E+03 0.  0.
        998    1    1    2    0    0 -0.84781664845E+01  0.13674512406E+02  0.14146766950E+04  0.14148035281E+04  0.10000000000E+02 0.  1.
</event>
<event>
 5    1  0.1533416E-008  0.3704157E+03  0.7957747E-01  0.3493983E+00
         13   -1    0    0    0    0  0.00000000000E+00  0.00000000000E+00  0.14999999963E+04  0.15000000000E+04  0.10566000000E+00 0. -1.
        994   -1    0    0    0    0 -0.00000000000E+00 -0.00000000000E+00  0.11368683772E-12  0.17120000000E+03  0.17120000000E+03 0.  0.
         13    1    1    2    0    0  0.59338555650E+01 -0.34418299949E+02  0.61932615374E+02  0.71101969202E+02  0.10566000000E+00 0. -1.
        994    1    1    2    0    0  0.46337476313E+00 -0.48660308208E+02  0.19495879445E+02  0.17904627789E+03  0.17120000000E+03 0.  0.
        998    1    1    2    0    0 -0.63972303282E+01  0.83078608157E+02  0.14185715015E+04  0.14210517529E+04  0.10000000000E+02 0. -1.
</event>
<event>
 5    1  0.1533416E-008  0.3799430E+03  0.7957747E-01  0.3451407E+00
         13   -1    0    0    0    0  0.00000000000E+00  0.00000000000E+00  0.14999999963E+04  0.15000000000E+04  0.10566000000E+00 0. -1.
        994   -1    0    0    0    0 -0.00000000000E+00 -0.00000000000E+00  0.11368683772E-12  0.17120000000E+03  0.17120000000E+03 0.  0.
         13    1    1    2    0    0 -0.36055277924E+02 -0.12884352519E+02  0.16368208458E+03  0.16810064123E+03  0.10566000000E+00 0. -1.
        994    1    1    2    0    0  0.30839418292E+02  0.97084037272E+01  0.76649249220E+01  0.17439470719E+03  0.17120000000E+03 0.  0.
        998    1    1    2    0    0  0.52158596316E+01  0.31759487918E+01  0.13286529868E+04  0.13287046516E+04  0.10000000000E+02 0. -1.
</event>
<event>
 5    1  0.1533416E-008  0.3092127E+03  0.7957747E-01  0.3832367E+00
         13   -1    0    0    0    0  0.00000000000E+00  0.00000000000E+00  0.14999999963E+04  0.15000000000E+04  0.10566000000E+00 0.  1.
        994   -1    0    0    0    0 -0.00000000000E+00 -0.00000000000E+00  0.11368683772E-12  0.17120000000E+03  0.17120000000E+03 0.  0.
         13    1    1    2    0    0  0.79395971862E+02  0.12597435097E+03  0.83172369087E+03  0.84494826266E+03  0.10566000000E+00 0.  1.
        994    1    1    2    0    0 -0.59342706589E+02 -0.73876037676E+02  0.45495845903E+02  0.20089434477E+03  0.17120000000E+03 0.  0.
        998    1    1    2    0    0 -0.20053265273E+02 -0.52098313296E+02  0.62278045951E+03  0.62535739257E+03  0.10000000000E+02 0.  1.
</event>
<event>
 5    1  0.1533416E-008  0.3864454E+03  0.7957747E-01  0.3423565E+00
         13   -1    0    0    0    0  0.00000000000E+00  0.00000000000E+00  0.14999999963E+04  0.15000000000E+04  0.10566000000E+00 0. -1.
        994   -1    0    0    0    0 -0.00000000000E+00 -0.00000000000E+00  0.11368683772E-12  0.17120000000E+03  0.17120000000E+03 0.  0.
         13    1    1    2    0    0  0.10230023286E+02  0.32590568681E+00  0.56053622558E+02  0.56980517344E+02  0.10566000000E+00 0. -1.
        994    1    1    2    0    0 -0.12253135945E+02 -0.53554065899E+01  0.14997495448E+01  0.17172800869E+03  0.17120000000E+03 0.  0.
        998    1    1    2    0    0  0.20231126586E+01  0.50295009031E+01  0.14424466242E+04  0.14424914740E+04  0.10000000000E+02 0. -1.
</event>
<event>
 5    1  0.1533416E-008  0.3861313E+03  0.7957747E-01  0.3424888E+00
         13   -1    0    0    0    0  0.00000000000E+00  0.00000000000E+00  0.14999999963E+04  0.15000000000E+04  0.10566000000E+00 0.  1.
        994   -1    0    0    0    0 -0.00000000000E+00 -0.00000000000E+00  0.11368683772E-12  0.17120000000E+03  0.17120000000E+03 0.  0.
         13    1    1    2    0    0 -0.10423282908E+02 -0.56498326215E+01  0.71172810839E+02  0.72153625010E+02  0.10566000000E+00 0.  1.
        994    1    1    2    0    0 -0.34513580769E+01  0.62825038010E+01  0.12378633260E+01  0.17135446896E+03  0.17120000000E+03 0.  0.
        998    1    1    2    0    0  0.13874640985E+02 -0.63267117951E+00  0.14275893221E+04  0.14276919060E+04  0.10000000000E+02 0.  1.
</event>
<event>
 5    1  0.1533416E-008  0.3813938E+03  0.7957747E-01  0.3445112E+00
         13   -1    0    0    0    0  0.00000000000E+00  0.00000000000E+00  0.14999999963E+04  0.15000000000E+04  0.10566000000E+00 0. -1.
        994   -1    0    0    0    0 -0.00000000000E+00 -0.00000000000E+00  0.11368683772E-12  0.17120000000E+03  0.17120000000E+03 0.  0.
         13    1    1    2    0    0 -0.67165465806E+01 -0.16458542823E+02  0.44692953817E+02  0.48098512604E+02  0.10566000000E+00 0. -1.
        994    1    1    2    0    0  0.44015292445E+00  0.13280089852E+02  0.40189474792E+01  0.17176188885E+03  0.17120000000E+03 0.  0.
        998    1    1    2    0    0  0.62763936561E+01  0.31784529710E+01  0.14512880950E+04  0.14513395985E+04  0.10000000000E+02 0. -1.
</event>
<event>
 5    1  0.1533416E-008  0.3697161E+03  0.7957747E-01  0.3497196E+00
         13   -1    0    0    0    0  0.00000000000E+00  0.00000000000E+00  0.14999999963E+04  0.15000000000E+04  0.10566000000E+00 0. -1.
        994   -1    0    0    0    0 -0.00000000000E+00 -0.00000000000E+00  0.11368683772E-12  0.17120000000E+03  0.17120000000E+03 0.  0.
         13    1    1    2    0    0  0.37120747418E+02  0.84538179103E+02  0.51050510716E+03  0.51878717140E+03  0.10566000000E+00 0. -1.
        994    1    1    2    0    0  0.30855058395E+02 -0.63702267662E+02  0.26963103856E+02  0.18720700442E+03  0.17120000000E+03 0.  0.
        998    1    1    2    0    0 -0.67975805813E+02 -0.20835911440E+02  0.96253178527E+03  0.96520582418E+03  0.10000000000E+02 0.  1.
</event>
<event>
 5    1  0.1533416E-008  0.3844031E+03  0.7957747E-01  0.3432208E+00
         13   -1    0    0    0    0  0.00000000000E+00  0.00000000000E+00  0.14999999963E+04  0.15000000000E+04  0.10566000000E+00 0. -1.
        994   -1    0    0    0    0 -0.00000000000E+00 -0.00000000000E+00  0.11368683772E-12  0.17120000000E+03  0.17120000000E+03 0.  0.
         13    1    1    2    0    0 -0.26586289499E+02 -0.27461149795E+01  0.15154427957E+03  0.15388324071E+03  0.10566000000E+00 0. -1.
        994    1    1    2    0    0  0.38673663693E+02  0.60072996611E+01  0.69902850094E+01  0.17575563717E+03  0.17120000000E+03 0.  0.
        998    1    1    2    0    0 -0.12087374194E+02 -0.32611846816E+01  0.13414654317E+04  0.13415611221E+04  0.10000000000E+02 0. -1.
</event>
<event>
 5    1  0.1533416E-008  0.2380910E+03  0.7957747E-01  0.4469239E+00
         13   -1    0    0    0    0  0.00000000000E+00  0.00000000000E+00  0.14999999963E+04  0.15000000000E+04  0.10566000000E+00 0. -1.
        994   -1    0    0    0    0 -0.00000000000E+00 -0.00000000000E+00  0.11368683772E-12  0.17120000000E+03  0.17120000000E+03 0.  0.
         13    1    1    2    0    0 -0.16146866981E+03 -0.25626792069E+02  0.31871606929E+03  0.35820218842E+03  0.10566000000E+00 0. -1.
        994    1    1    2    0    0  0.83791517620E+02  0.11954752142E+03  0.14094257683E+03  0.26549365014E+03  0.17120000000E+03 0.  0.
        998    1    1    2    0    0  0.77677152191E+02 -0.93920729352E+02  0.10403413502E+04  0.10475041614E+04  0.10000000000E+02 0.  1.
</event>
<event>
 5    1  0.1533416E-008  0.4108270E+03  0.7957747E-01  0.3327016E+00
         13   -1    0    0    0    0  0.00000000000E+00  0.00000000000E+00  0.14999999963E+04  0.15000000000E+04  0.10566000000E+00 0. -1.
        994   -1    0    0    0    0 -0.00000000000E+00 -0.00000000000E+00  0.11368683772E-12  0.17120000000E+03  0.17120000000E+03 0.  0.
         13    1    1    2    0    0 -0.24783927271E+01 -0.30167063211E+02 -0.11786163041E+01  0.30291821234E+02  0.10566000000E+00 0. -1.
        994    1    1    2    0    0  0.10348247387E+01  0.35077334013E+02  0.39476427016E+02  0.17916282682E+03  0.17120000000E+03 0.  0.
        998    1    1    2    0    0  0.14435679884E+01 -0.49102708027E+01  0.14617021856E+04  0.14617453519E+04  0.10000000000E+02 0. -1.
</event>
<event>
 5    1  0.1533416E-008  0.3823926E+03  0.7957747E-01  0.3440806E+00
         13   -1    0    0    0    0  0.00000000000E+00  0.00000000000E+00  0.14999999963E+04  0.15000000000E+04  0.10566000000E+00 0. -1.
        994   -1    0    0    0    0 -0.00000000000E+00 -0.00000000000E+00  0.11368683772E-12  0.17120000000E+03  0.17120000000E+03 0.  0.
         13    1    1    2    0    0 -0.14498206427E+02 -0.14296865644E+02  0.77981642434E+02  0.80596191458E+02  0.10566000000E+00 0. -1.
        994    1    1    2    0    0  0.60163290859E+01 -0.16545177292E+02  0.39588569664E+01  0.17214834201E+03  0.17120000000E+03 0.  0.
        998    1    1    2    0    0  0.84818773416E+01  0.30842042935E+02  0.14180594969E+04  0.14184554665E+04  0.10000000000E+02 0. -1.
</event>
<event>
 5    1  0.1533416E-008  0.3798822E+03  0.7957747E-01  0.3451672E+00
         13   -1    0    0    0    0  0.00000000000E+00  0.00000000000E+00  0.14999999963E+04  0.15000000000E+04  0.10566000000E+00 0.  1.
        994   -1    0    0    0    0 -0.00000000000E+00 -0.00000000000E+00  0.11368683772E-12  0.17120000000E+03  0.17120000000E+03 0.  0.
         13    1    1    2    0    0 -0.11331596668E+00 -0.32139459768E+02  0.10705299368E+03  0.11177348673E+03  0.10566000000E+00 0.  1.
        994    1    1    2    0    0  0.11184364615E+02  0.44061853099E+02  0.11134729921E+02  0.17748227833E+03  0.17120000000E+03 0.  0.
        998    1    1    2    0    0 -0.11071048649E+02 -0.11922393330E+02  0.13818122727E+04  0.13819442349E+04  0.10000000000E+02 0.  1.
</event>
<event>
 5    1  0.1533416E-008  0.3716706E+03  0.7957747E-01  0.3488248E+00
         13   -1    0    0    0    0  0.00000000000E+00  0.00000000000E+00  0.14999999963E+04  0.15000000000E+04  0.10566000000E+00 0.  1.
        994   -1    0    0    0    0 -0.00000000000E+00 -0.00000000000E+00  0.11368683772E-12  0.17120000000E+03  0.17120000000E+03 0.  0.
         13    1    1    2    0    0  0.31963080843E+01 -0.16369620426E+02  0.63771057601E+01  0.17856637426E+02  0.10566000000E+00 0.  1.
        994    1    1    2    0    0  0.98131518676E+01  0.18230356609E+02  0.13333689403E+02  0.17296205111E+03  0.17120000000E+03 0.  0.
        998    1    1    2    0    0 -0.13009459952E+02 -0.18607361839E+01  0.14802892011E+04  0.14803813115E+04  0.10000000000E+02 0.  1.
</event>
<event>
 5    1  0.1533416E-008  0.3844097E+03  0.7957747E-01  0.3432180E+00
         13   -1    0    0    0    0  0.00000000000E+00  0.00000000000E+00  0.14999999963E+04  0.15000000000E+04  0.10566000000E+00 0.  1.
        994   -1    0    0    0    0 -0.00000000000E+00 -0.00000000000E+00  0.11368683772E-12  0.17120000000E+03  0.17120000000E+03 0.  0.
         13    1    1    2    0    0 -0.72895842424E+01 -0.82124858050E+01  0.32231796290E+02  0.34051179387E+02  0.10566000000E+00 0.  1.
        994    1    1    2    0    0 -0.23118831265E+01 -0.11687397690E+01  0.19456043294E+01  0.17123065185E+03  0.17120000000E+03 0.  0.
        998    1    1    2    0    0  0.96014673689E+01  0.93812255740E+01  0.14658225957E+04  0.14659181688E+04  0.10000000000E+02 0.  1.
</event>
<event>
 5    1  0.1533416E-008  0.3696910E+03  0.7957747E-01  0.3497312E+00
         13   -1    0    0    0    0  0.00000000000E+00  0.00000000000E+00  0.14999999963E+04  0.15000000000E+04  0.10566000000E+00 0. -1.
        994   -1    0    0    0    0 -0.00000000000E+00 -0.00000000000E+00  0.11368683772E-12  0.17120000000E+03  0.17120000000E+03 0.  0.
         13    1    1    2    0    0  0.92089841489E+01 -0.43085094688E+02  0.95029937338E+02  0.10474650795E+03  0.10566000000E+00 0. -1.
        994    1    1    2    0    0 -0.21798387570E+01  0.41022385845E+02  0.15294672664E+02  0.17672281927E+03  0.17120000000E+03 0.  0.
        998    1    1    2    0    0 -0.70291453918E+01  0.20627088425E+01  0.13896753863E+04  0.13897306728E+04  0.10000000000E+02 0. -1.
</event>
<event>
 5    1  0.1533416E-008  0.3793708E+03  0.7957747E-01  0.3453903E+00
         13   -1    0    0    0    0  0.00000000000E+00  0.00000000000E+00  0.14999999963E+04  0.15000000000E+04  0.10566000000E+00 0.  1.
        994   -1    0    0    0    0 -0.00000000000E+00 -0.00000000000E+00  0.11368683772E-12  0.17120000000E+03  0.17120000000E+03 0.  0.
         13    1    1    2    0    0  0.11888542930E+02  0.26473203885E+01  0.14717874043E+02  0.19104259698E+02  0.10566000000E+00 0.  1.
        994    1    1    2    0    0 -0.88391556209E+01 -0.30920408132E+01  0.47449204554E+01  0.17152156033E+03  0.17120000000E+03 0.  0.
        998    1    1    2    0    0 -0.30493873088E+01  0.44472042474E+00  0.14805372018E+04  0.14805741800E+04  0.10000000000E+02 0.  1.
</event>
<event>
 5    1  0.1533416E-008  0.3730496E+03  0.7957747E-01  0.3481992E+00
         13   -1    0    0    0    0  0.00000000000E+00  0.00000000000E+00  0.14999999963E+04  0.15000000000E+04  0.10566000000E+00 0.  1.
        994   -1    0    0    0    0 -0.00000000000E+00 -0.00000000000E+00  0.11368683772E-12  0.17120000000E+03  0.17120000000E+03 0.  0.
         13    1    1    2    0    0 -0.32720524427E+02 -0.18406204640E+02  0.94994674430E+02  0.10214411594E+03  0.10566000000E+00 0.  1.
        994    1    1    2    0    0 -0.63700247158E+00  0.14790721820E+02  0.84339875717E+01  0.17204575952E+03  0.17120000000E+03 0.  0.
        998    1    1    2    0    0  0.33357526898E+02  0.36154828203E+01  0.13965713343E+04  0.13970101245E+04  0.10000000000E+02 0.  1.
</event>
<event>
 5    1  0.1533416E-008  0.3830985E+03  0.7957747E-01  0.3437777E+00
         13   -1    0    0    0    0  0.00000000000E+00  0.00000000000E+00  0.14999999963E+04  0.15000000000E+04  0.10566000000E+00 0.  1.
        994   -1    0    0    0    0 -0.00000000000E+00 -0.00000000000E+00  0.11368683772E-12  0.17120000000E+03  0.17120000000E+03 0.  0.
         13    1    1    2    0    0  0.30256837283E+02  0.80951262495E+00  0.15716688925E+03  0.16005490856E+03  0.10566000000E+00 0.  1.
        994    1    1    2    0    0 -0.32902740474E+02 -0.94838402053E+01  0.64667984837E+01  0.17471059796E+03  0.17120000000E+03 0.  0.
        998    1    1    2    0    0  0.26459031903E+01  0.86743275804E+01  0.13363663085E+04  0.13364344935E+04  0.10000000000E+02 0.  1.
</event>
